<?xml version="1.0" encoding="ISO-8859-1"?>
<modeling>
 <generator>
  <i name="program" type="string">vasp </i>
  <i name="version" type="string">5.4.4.18Apr17-6-g9f103f2a35  </i>
  <i name="subversion" type="string">(build Oct 18 2020 22:16:12) gamma-only         parallel </i>
  <i name="platform" type="string">UA-vaughan-2020a </i>
  <i name="date" type="string">2023 03 21 </i>
  <i name="time" type="string">21:42:04 </i>
 </generator>
 <incar>
  <i type="string" name="PREC">accurate</i>
  <i type="int" name="IALGO">    38</i>
  <i type="logical" name="ADDGRID"> T  </i>
  <i type="int" name="NELMIN">     5</i>
  <i type="int" name="IBRION">    -1</i>
  <i name="EDIFF">      0.00000001</i>
  <i name="EDIFFG">     -0.00000001</i>
  <i type="int" name="NSW">     0</i>
  <i type="int" name="ISIF">     2</i>
  <i name="ENCUT">    500.00000000</i>
  <i type="logical" name="LREAL"> F  </i>
  <i type="int" name="ISMEAR">     0</i>
  <i name="SIGMA">      0.01000000</i>
  <i type="logical" name="LWAVE"> F  </i>
  <i type="logical" name="LCHARG"> F  </i>
  <v type="int" name="KPOINT_BSE">    -1     0     0     0</v>
 </incar>
 <structure name="primitive_cell" >
  <crystal>
   <varray name="basis" >
    <v>      17.59966831       0.00000000       0.00000000 </v>
    <v>      -8.79983416      15.24175986       0.00000000 </v>
    <v>       0.00000000       0.00000000      19.92151445 </v>
   </varray>
   <i name="volume">   5343.94461817 </i>
   <varray name="rec_basis" >
    <v>       0.05681925       0.03280461       0.00000000 </v>
    <v>       0.00000000       0.06560922       0.00000000 </v>
    <v>       0.00000000       0.00000000       0.05019699 </v>
   </varray>
  </crystal>
  <varray name="positions" >
   <v>      -0.00056990       0.00005992      -0.50000000 </v>
   <v>      -0.09559153      -0.04686260      -0.50000000 </v>
   <v>       0.04629157      -0.04845614      -0.50000000 </v>
   <v>       0.04754270       0.09547788      -0.50000000 </v>
   <v>      -0.14173506       0.00214292      -0.50000000 </v>
   <v>       0.14259355       0.14244783      -0.50000000 </v>
   <v>       0.14164706      -0.00128105      -0.50000000 </v>
   <v>      -0.00222825      -0.14386507      -0.50000000 </v>
   <v>      -0.14440994      -0.14241310      -0.50000000 </v>
   <v>       0.00080792       0.14408264      -0.50000000 </v>
   <v>       0.18957833       0.09405657      -0.50000000 </v>
   <v>      -0.09417874       0.09719274      -0.50000000 </v>
   <v>      -0.09804946      -0.19102931      -0.50000000 </v>
   <v>      -0.23644228      -0.04431313      -0.50000000 </v>
   <v>      -0.23937155      -0.18870526      -0.50000000 </v>
   <v>       0.19048138       0.23782962      -0.50000000 </v>
   <v>       0.04582562      -0.19120635      -0.50000000 </v>
   <v>       0.18948291      -0.04886963      -0.50000000 </v>
   <v>       0.04854983       0.23934281      -0.50000000 </v>
   <v>      -0.28359367      -0.13861590      -0.50000000 </v>
   <v>       0.28470221       0.14112972      -0.50000000 </v>
   <v>      -0.14194737       0.14467669      -0.50000000 </v>
   <v>      -0.14938794      -0.28617460      -0.50000000 </v>
   <v>       0.14160898      -0.14408712      -0.50000000 </v>
   <v>       0.14372552       0.28645370      -0.50000000 </v>
   <v>      -0.28469345       0.00214292      -0.50000000 </v>
   <v>       0.28540977       0.28469374      -0.50000000 </v>
   <v>      -0.00292766      -0.28686301      -0.50000000 </v>
   <v>       0.00095476       0.28713011      -0.50000000 </v>
   <v>       0.28492260      -0.00158337      -0.50000000 </v>
   <v>      -0.29741032      -0.28373063      -0.50000000 </v>
   <v>      -0.09946280      -0.33311206      -0.50000000 </v>
   <v>       0.33234878       0.23634667      -0.50000000 </v>
   <v>      -0.23719996       0.09719274      -0.50000000 </v>
   <v>       0.33254182       0.09365506      -0.50000000 </v>
   <v>      -0.09437203       0.23982737      -0.50000000 </v>
   <v>      -0.24762082      -0.33289240      -0.50000000 </v>
   <v>      -0.37790513      -0.18870526      -0.50000000 </v>
   <v>       0.19188940       0.38184213      -0.50000000 </v>
   <v>       0.19009580      -0.19123697      -0.50000000 </v>
   <v>      -0.37984249      -0.04686260      -0.50000000 </v>
   <v>       0.04642473      -0.33314772      -0.50000000 </v>
   <v>       0.33352206       0.38013969      -0.50000000 </v>
   <v>       0.04871288       0.38232824      -0.50000000 </v>
   <v>       0.33307603      -0.04886963      -0.50000000 </v>
   <v>      -0.41489174      -0.28373063      -0.50000000 </v>
   <v>      -0.42657459      -0.14241310      -0.50000000 </v>
   <v>       0.42724431       0.28306005      -0.50000000 </v>
   <v>      -0.14538305      -0.42818375      -0.50000000 </v>
   <v>      -0.28529671       0.14408264      -0.50000000 </v>
   <v>      -0.28954788      -0.42784436      -0.50000000 </v>
   <v>       0.42785608       0.14112972      -0.50000000 </v>
   <v>      -0.14239608       0.28713011      -0.50000000 </v>
   <v>       0.14422690       0.42957551      -0.50000000 </v>
   <v>       0.28730213       0.42918005      -0.50000000 </v>
   <v>       0.14255519      -0.28631818      -0.50000000 </v>
   <v>       0.28573247      -0.14408712      -0.50000000 </v>
   <v>      -0.24098231      -0.47544567      -0.50000000 </v>
   <v>       0.47542646       0.23634667      -0.50000000 </v>
   <v>      -0.23777845       0.23934281      -0.50000000 </v>
   <v>       0.42797654       0.42569726      -0.50000000 </v>
   <v>      -0.42794161       0.00005992      -0.50000000 </v>
   <v>      -0.00071745      -0.42818538      -0.50000000 </v>
   <v>       0.00054479       0.42966101      -0.50000000 </v>
   <v>       0.42850047      -0.00128105      -0.50000000 </v>
   <v>      -0.43169127      -0.43481112      -0.50000000 </v>
   <v>       0.47472270       0.37801683      -0.50000000 </v>
   <v>      -0.09644208      -0.47523136      -0.50000000 </v>
   <v>      -0.38063624       0.09547788      -0.50000000 </v>
   <v>       0.47590681       0.09405657      -0.50000000 </v>
   <v>      -0.09495607       0.38232824      -0.50000000 </v>
   <v>      -0.38544126      -0.47853279      -0.50000000 </v>
   <v>       0.48615700      -0.33289240      -0.50000000 </v>
   <v>       0.47844872      -0.19102931      -0.50000000 </v>
   <v>       0.19263929      -0.47523136      -0.50000000 </v>
   <v>       0.33696521      -0.47544567      -0.50000000 </v>
   <v>       0.19185612      -0.33314772      -0.50000000 </v>
   <v>       0.33439660      -0.19120635      -0.50000000 </v>
   <v>       0.43464191      -0.28617460      -0.50000000 </v>
   <v>      -0.28669350       0.42918005      -0.50000000 </v>
   <v>      -0.42928746       0.28469374      -0.50000000 </v>
   <v>      -0.28584326       0.28645370      -0.50000000 </v>
   <v>       0.28862787      -0.42818375      -0.50000000 </v>
   <v>       0.28806142      -0.28629482      -0.50000000 </v>
   <v>       0.47668087      -0.04845614      -0.50000000 </v>
   <v>       0.47833704      -0.47853279      -0.50000000 </v>
   <v>       0.04810654      -0.47521548      -0.50000000 </v>
   <v>       0.43313209      -0.42784436      -0.50000000 </v>
   <v>       0.42979175      -0.14386507      -0.50000000 </v>
   <v>      -0.43085070       0.42569726      -0.50000000 </v>
   <v>      -0.14322281       0.42957551      -0.50000000 </v>
   <v>      -0.42871714       0.14244783      -0.50000000 </v>
   <v>       0.14396064      -0.42818538      -0.50000000 </v>
   <v>      -0.23861870       0.38184213      -0.50000000 </v>
   <v>      -0.38122319       0.23782962      -0.50000000 </v>
   <v>      -0.38195380       0.38013969      -0.50000000 </v>
   <v>       0.33777931      -0.33311206      -0.50000000 </v>
  </varray>
 </structure>
 <varray name="primitive_index" >
  <v type="int" >        1 </v>
  <v type="int" >       96 </v>
  <v type="int" >       90 </v>
  <v type="int" >       49 </v>
  <v type="int" >        7 </v>
  <v type="int" >        9 </v>
  <v type="int" >        2 </v>
  <v type="int" >       42 </v>
  <v type="int" >       48 </v>
  <v type="int" >        8 </v>
  <v type="int" >       50 </v>
  <v type="int" >       55 </v>
  <v type="int" >       89 </v>
  <v type="int" >       95 </v>
  <v type="int" >       88 </v>
  <v type="int" >       57 </v>
  <v type="int" >       83 </v>
  <v type="int" >       91 </v>
  <v type="int" >       56 </v>
  <v type="int" >       47 </v>
  <v type="int" >       10 </v>
  <v type="int" >       14 </v>
  <v type="int" >       41 </v>
  <v type="int" >       43 </v>
  <v type="int" >       16 </v>
  <v type="int" >        6 </v>
  <v type="int" >       17 </v>
  <v type="int" >       35 </v>
  <v type="int" >       15 </v>
  <v type="int" >        3 </v>
  <v type="int" >       40 </v>
  <v type="int" >       82 </v>
  <v type="int" >       58 </v>
  <v type="int" >       54 </v>
  <v type="int" >       51 </v>
  <v type="int" >       62 </v>
  <v type="int" >       81 </v>
  <v type="int" >       87 </v>
  <v type="int" >       64 </v>
  <v type="int" >       84 </v>
  <v type="int" >       94 </v>
  <v type="int" >       77 </v>
  <v type="int" >       65 </v>
  <v type="int" >       63 </v>
  <v type="int" >       92 </v>
  <v type="int" >       39 </v>
  <v type="int" >       46 </v>
  <v type="int" >       18 </v>
  <v type="int" >       34 </v>
  <v type="int" >       13 </v>
  <v type="int" >       33 </v>
  <v type="int" >       11 </v>
  <v type="int" >       21 </v>
  <v type="int" >       23 </v>
  <v type="int" >       24 </v>
  <v type="int" >       36 </v>
  <v type="int" >       44 </v>
  <v type="int" >       75 </v>
  <v type="int" >       59 </v>
  <v type="int" >       61 </v>
  <v type="int" >       25 </v>
  <v type="int" >        5 </v>
  <v type="int" >       29 </v>
  <v type="int" >       22 </v>
  <v type="int" >        4 </v>
  <v type="int" >       97 </v>
  <v type="int" >       66 </v>
  <v type="int" >       76 </v>
  <v type="int" >       53 </v>
  <v type="int" >       52 </v>
  <v type="int" >       69 </v>
  <v type="int" >       74 </v>
  <v type="int" >       80 </v>
  <v type="int" >       86 </v>
  <v type="int" >       71 </v>
  <v type="int" >       72 </v>
  <v type="int" >       78 </v>
  <v type="int" >       85 </v>
  <v type="int" >       38 </v>
  <v type="int" >       27 </v>
  <v type="int" >       19 </v>
  <v type="int" >       20 </v>
  <v type="int" >       31 </v>
  <v type="int" >       37 </v>
  <v type="int" >       93 </v>
  <v type="int" >       73 </v>
  <v type="int" >       70 </v>
  <v type="int" >       32 </v>
  <v type="int" >       45 </v>
  <v type="int" >       26 </v>
  <v type="int" >       28 </v>
  <v type="int" >       12 </v>
  <v type="int" >       30 </v>
  <v type="int" >       68 </v>
  <v type="int" >       60 </v>
  <v type="int" >       67 </v>
  <v type="int" >       79 </v>
 </varray>
 <kpoints>
  <generation param="Gamma">
   <v type="int" name="divisions">       1        1        1 </v>
   <v name="usershift">      0.00000000       0.00000000       0.00000000 </v>
   <v name="genvec1">      1.00000000      -0.00000000       0.00000000 </v>
   <v name="genvec2">      0.00000000       1.00000000       0.00000000 </v>
   <v name="genvec3">      0.00000000       0.00000000       1.00000000 </v>
   <v name="shift">      0.00000000       0.00000000       0.00000000 </v>
  </generation>
  <varray name="kpointlist" >
   <v>       0.00000000       0.00000000       0.00000000 </v>
  </varray>
  <varray name="weights" >
   <v>       1.00000000 </v>
  </varray>
 </kpoints>
 <parameters>
  <separator name="general" >
   <i type="string" name="SYSTEM">unknown system</i>
   <i type="logical" name="LCOMPAT"> F  </i>
  </separator>
  <separator name="electronic" >
   <i type="string" name="PREC">accura</i>
   <i name="ENMAX">    500.00000000</i>
   <i name="ENAUG">    644.87300000</i>
   <i name="EDIFF">      0.00000001</i>
   <i type="int" name="IALGO">    38</i>
   <i type="int" name="IWAVPR">    10</i>
   <i type="int" name="NBANDS">   244</i>
   <i name="NELECT">    388.00000000</i>
   <i type="int" name="TURBO">     0</i>
   <i type="int" name="IRESTART">     0</i>
   <i type="int" name="NREBOOT">     0</i>
   <i type="int" name="NMIN">     0</i>
   <i name="EREF">      0.00000000</i>
   <separator name="electronic smearing" >
    <i type="int" name="ISMEAR">     0</i>
    <i name="SIGMA">      0.01000000</i>
    <i name="KSPACING">      0.50000000</i>
    <i type="logical" name="KGAMMA"> T  </i>
   </separator>
   <separator name="electronic projectors" >
    <i type="logical" name="LREAL"> F  </i>
    <v name="ROPT">      0.00000000      0.00000000      0.00000000</v>
    <i type="int" name="LMAXPAW">  -100</i>
    <i type="int" name="LMAXMIX">     2</i>
    <i type="logical" name="NLSPLINE"> F  </i>
   </separator>
   <separator name="electronic startup" >
    <i type="int" name="ISTART">     0</i>
    <i type="int" name="ICHARG">     2</i>
    <i type="int" name="INIWAV">     1</i>
   </separator>
   <separator name="electronic spin" >
    <i type="int" name="ISPIN">     1</i>
    <i type="logical" name="LNONCOLLINEAR"> F  </i>
    <v name="MAGMOM">      1.00000000      1.00000000      1.00000000      1.00000000      1.00000000      1.00000000      1.00000000      1.00000000      1.00000000      1.00000000      1.00000000      1.00000000      1.00000000      1.00000000      1.00000000      1.00000000      1.00000000      1.00000000      1.00000000      1.00000000
      1.00000000      1.00000000      1.00000000      1.00000000      1.00000000      1.00000000      1.00000000      1.00000000      1.00000000      1.00000000      1.00000000      1.00000000      1.00000000      1.00000000      1.00000000      1.00000000      1.00000000      1.00000000      1.00000000      1.00000000
      1.00000000      1.00000000      1.00000000      1.00000000      1.00000000      1.00000000      1.00000000      1.00000000      1.00000000      1.00000000      1.00000000      1.00000000      1.00000000      1.00000000      1.00000000      1.00000000      1.00000000      1.00000000      1.00000000      1.00000000
      1.00000000      1.00000000      1.00000000      1.00000000      1.00000000      1.00000000      1.00000000      1.00000000      1.00000000      1.00000000      1.00000000      1.00000000      1.00000000      1.00000000      1.00000000      1.00000000      1.00000000      1.00000000      1.00000000      1.00000000
      1.00000000      1.00000000      1.00000000      1.00000000      1.00000000      1.00000000      1.00000000      1.00000000      1.00000000      1.00000000      1.00000000      1.00000000      1.00000000      1.00000000      1.00000000      1.00000000      1.00000000</v>
    <i name="NUPDOWN">     -1.00000000</i>
    <i type="logical" name="LSORBIT"> F  </i>
    <v name="SAXIS">      0.00000000      0.00000000      1.00000000</v>
    <i type="logical" name="LSPIRAL"> F  </i>
    <v name="QSPIRAL">      0.00000000      0.00000000      0.00000000</v>
    <i type="logical" name="LZEROZ"> F  </i>
   </separator>
   <separator name="electronic exchange-correlation" >
    <i type="logical" name="LASPH"> F  </i>
    <i type="logical" name="LMETAGGA"> F  </i>
   </separator>
   <separator name="electronic convergence" >
    <i type="int" name="NELM">    60</i>
    <i type="int" name="NELMDL">    -5</i>
    <i type="int" name="NELMIN">     5</i>
    <i name="ENINI">    500.00000000</i>
    <separator name="electronic convergence detail" >
     <i type="logical" name="LDIAG"> T  </i>
     <i type="logical" name="LSUBROT"> F  </i>
     <i name="WEIMIN">      0.00000000</i>
     <i name="EBREAK">      0.00000000</i>
     <i name="DEPER">      0.30000000</i>
     <i type="int" name="NRMM">     4</i>
     <i name="TIME">      0.40000000</i>
    </separator>
   </separator>
   <separator name="electronic mixer" >
    <i name="AMIX">      0.40000000</i>
    <i name="BMIX">      1.00000000</i>
    <i name="AMIN">      0.10000000</i>
    <i name="AMIX_MAG">      1.60000000</i>
    <i name="BMIX_MAG">      1.00000000</i>
    <separator name="electronic mixer details" >
     <i type="int" name="IMIX">     4</i>
     <i type="logical" name="MIXFIRST"> F  </i>
     <i type="int" name="MAXMIX">   -45</i>
     <i name="WC">    100.00000000</i>
     <i type="int" name="INIMIX">     1</i>
     <i type="int" name="MIXPRE">     1</i>
     <i type="int" name="MREMOVE">     5</i>
    </separator>
   </separator>
   <separator name="electronic dipolcorrection" >
    <i type="logical" name="LDIPOL"> F  </i>
    <i type="logical" name="LMONO"> F  </i>
    <i type="int" name="IDIPOL">     0</i>
    <i name="EPSILON">      1.00000000</i>
    <v name="DIPOL">   -100.00000000   -100.00000000   -100.00000000</v>
    <i name="EFIELD">      0.00000000</i>
   </separator>
  </separator>
  <separator name="grids" >
   <i type="int" name="NGX">   128</i>
   <i type="int" name="NGY">   128</i>
   <i type="int" name="NGZ">   150</i>
   <i type="int" name="NGXF">   256</i>
   <i type="int" name="NGYF">   256</i>
   <i type="int" name="NGZF">   300</i>
   <i type="logical" name="ADDGRID"> T  </i>
  </separator>
  <separator name="ionic" >
   <i type="int" name="NSW">     0</i>
   <i type="int" name="IBRION">    -1</i>
   <i type="int" name="MDALGO">     0</i>
   <i type="int" name="ISIF">     2</i>
   <i name="PSTRESS">      0.00000000</i>
   <i name="EDIFFG">     -0.00000001</i>
   <i type="int" name="NFREE">     0</i>
   <i name="POTIM">      0.50000000</i>
   <i name="SMASS">     -3.00000000</i>
   <i name="SCALEE">      1.00000000</i>
  </separator>
  <separator name="ionic md" >
   <i name="TEBEG">      0.00010000</i>
   <i name="TEEND">      0.00010000</i>
   <i type="int" name="NBLOCK">     1</i>
   <i type="int" name="KBLOCK">     1</i>
   <i type="int" name="NPACO">   256</i>
   <i name="APACO">     16.00000000</i>
  </separator>
  <separator name="symmetry" >
   <i type="int" name="ISYM">     2</i>
   <i name="SYMPREC">      0.00001000</i>
  </separator>
  <separator name="dos" >
   <i type="int" name="LORBIT">     0</i>
   <v name="RWIGS">     -1.00000000     -1.00000000     -1.00000000</v>
   <i type="int" name="NEDOS">   301</i>
   <i name="EMIN">     10.00000000</i>
   <i name="EMAX">    -10.00000000</i>
   <i name="EFERMI">      0.00000000</i>
  </separator>
  <separator name="writing" >
   <i type="int" name="NWRITE">     2</i>
   <i type="logical" name="LWAVE"> F  </i>
   <i type="logical" name="LDOWNSAMPLE"> F  </i>
   <i type="logical" name="LCHARG"> F  </i>
   <i type="logical" name="LPARD"> F  </i>
   <i type="logical" name="LVTOT"> F  </i>
   <i type="logical" name="LVHAR"> F  </i>
   <i type="logical" name="LELF"> F  </i>
   <i type="logical" name="LOPTICS"> F  </i>
   <v name="STM">      0.00000000      0.00000000      0.00000000      0.00000000      0.00000000      0.00000000      0.00000000</v>
  </separator>
  <separator name="performance" >
   <i type="int" name="NPAR">     4</i>
   <i type="int" name="NSIM">     4</i>
   <i type="int" name="NBLK">    -1</i>
   <i type="logical" name="LPLANE"> T  </i>
   <i type="logical" name="LSCALAPACK"> T  </i>
   <i type="logical" name="LSCAAWARE"> F  </i>
   <i type="logical" name="LSCALU"> F  </i>
   <i type="logical" name="LASYNC"> F  </i>
   <i type="logical" name="LORBITALREAL"> F  </i>
  </separator>
  <separator name="miscellaneous" >
   <i type="int" name="IDIOT">     3</i>
   <i type="int" name="ISPECIAL">     0</i>
   <i type="logical" name="LMUSIC"> F  </i>
   <v name="POMASS">     10.81100000     14.00100000     12.01100000</v>
   <v name="DARWINR">      0.00000000      0.00000000      0.00000000</v>
   <v name="DARWINV">      1.00000000      1.00000000      1.00000000</v>
   <i type="logical" name="LCORR"> T  </i>
  </separator>
  <i type="logical" name="GGA_COMPAT"> T  </i>
  <i type="logical" name="LBERRY"> F  </i>
  <i type="int" name="ICORELEVEL">     0</i>
  <i type="logical" name="LDAU"> F  </i>
  <i type="int" name="I_CONSTRAINED_M">     0</i>
  <separator name="electronic exchange-correlation" >
   <i type="string" name="GGA">--</i>
   <i type="int" name="VOSKOWN">     0</i>
   <i type="logical" name="LHFCALC"> F  </i>
   <i type="string" name="PRECFOCK"></i>
   <i type="logical" name="LSYMGRAD"> F  </i>
   <i type="logical" name="LHFONE"> F  </i>
   <i type="logical" name="LRHFCALC"> F  </i>
   <i type="logical" name="LTHOMAS"> F  </i>
   <i type="logical" name="LMODELHF"> F  </i>
   <i name="ENCUT4O">     -1.00000000</i>
   <i type="int" name="EXXOEP">     0</i>
   <i type="int" name="FOURORBIT">     0</i>
   <i name="AEXX">      0.00000000</i>
   <i name="HFALPHA">      0.00000000</i>
   <i name="MCALPHA">      0.00000000</i>
   <i name="ALDAX">      1.00000000</i>
   <i name="AGGAX">      1.00000000</i>
   <i name="ALDAC">      1.00000000</i>
   <i name="AGGAC">      1.00000000</i>
   <i type="int" name="NKREDX">     1</i>
   <i type="int" name="NKREDY">     1</i>
   <i type="int" name="NKREDZ">     1</i>
   <i type="logical" name="SHIFTRED"> F  </i>
   <i type="logical" name="ODDONLY"> F  </i>
   <i type="logical" name="EVENONLY"> F  </i>
   <i type="int" name="LMAXFOCK">     0</i>
   <i type="int" name="NMAXFOCKAE">     0</i>
   <i type="logical" name="LFOCKAEDFT"> F  </i>
   <i name="HFSCREEN">      0.00000000</i>
   <i name="HFSCREENC">      0.00000000</i>
   <i type="int" name="NBANDSGWLOW">     0</i>
  </separator>
  <separator name="vdW DFT" >
   <i type="logical" name="LUSE_VDW"> F  </i>
   <i name="Zab_VDW">     -0.84910000</i>
   <i name="PARAM1">      0.12340000</i>
   <i name="PARAM2">      1.00000000</i>
   <i name="PARAM3">      0.00000000</i>
  </separator>
  <separator name="model GW" >
   <i type="int" name="MODEL_GW">     0</i>
   <i name="MODEL_EPS0">     33.05532754</i>
   <i name="MODEL_ALPHA">      1.00000000</i>
  </separator>
  <separator name="linear response parameters" >
   <i type="logical" name="LEPSILON"> F  </i>
   <i type="logical" name="LRPA"> F  </i>
   <i type="logical" name="LNABLA"> F  </i>
   <i type="logical" name="LVEL"> F  </i>
   <i type="int" name="KINTER">     0</i>
   <i name="CSHIFT">      0.10000000</i>
   <i name="OMEGAMAX">     -1.00000000</i>
   <i name="DEG_THRESHOLD">      0.00200000</i>
   <i name="RTIME">     -0.10000000</i>
   <i name="WPLASMAI">      0.00000000</i>
   <v name="DFIELD">      0.00000000      0.00000000      0.00000000</v>
   <v name="WPLASMA">      0.00000000      0.00000000      0.00000000      0.00000000      0.00000000      0.00000000      0.00000000      0.00000000      0.00000000</v>
  </separator>
  <separator name="orbital magnetization" >
   <i type="logical" name="NUCIND"> F  </i>
   <v name="MAGPOS">      0.00000000      0.00000000      0.00000000</v>
   <i type="logical" name="LNICSALL"> T  </i>
   <i type="logical" name="ORBITALMAG"> F  </i>
   <i type="logical" name="LMAGBLOCH"> F  </i>
   <i type="logical" name="LCHIMAG"> F  </i>
   <i type="logical" name="LGAUGE"> T  </i>
   <i type="int" name="MAGATOM">     0</i>
   <v name="MAGDIPOL">      0.00000000      0.00000000      0.00000000</v>
   <v name="AVECCONST">      0.00000000      0.00000000      0.00000000</v>
  </separator>
  <separator name="response functions" >
   <i type="logical" name="LADDER"> F  </i>
   <i type="logical" name="LRPAFORCE"> F  </i>
   <i type="logical" name="LFXC"> F  </i>
   <i type="logical" name="LHARTREE"> T  </i>
   <i type="int" name="IBSE">     0</i>
   <v type="int" name="KPOINT">    -1     0     0     0</v>
   <i type="logical" name="LTCTE"> F  </i>
   <i type="logical" name="LTETE"> F  </i>
   <i type="logical" name="LTRIPLET"> F  </i>
   <i type="logical" name="LFXCEPS"> F  </i>
   <i type="logical" name="LFXHEG"> F  </i>
   <i type="int" name="NATURALO">     2</i>
   <i type="logical" name="L2ORDER"> F  </i>
   <i type="logical" name="LMP2LT"> F  </i>
   <i type="logical" name="LUSEW"> F  </i>
   <i name="ENCUTGW">     -2.00000000</i>
   <i name="ENCUTGWSOFT">     -2.00000000</i>
   <i name="ENCUTLF">     -1.00000000</i>
   <i type="int" name="LMAXMP2">    -1</i>
   <i name="SCISSOR">      0.00000000</i>
   <i type="int" name="NOMEGA">     0</i>
   <i type="int" name="NOMEGAR">     0</i>
   <i type="int" name="NBANDSGW">    -1</i>
   <i type="int" name="NBANDSO">    -1</i>
   <i type="int" name="NBANDSV">    -1</i>
   <i type="int" name="NELM">     1</i>
   <i type="int" name="NELMHF">     1</i>
   <i type="int" name="DIM">     3</i>
   <i type="int" name="ANTIRES">     0</i>
   <i name="OMEGAMAX">    -30.00000000</i>
   <i name="OMEGAMIN">    -30.00000000</i>
   <i name="OMEGATL">   -200.00000000</i>
   <i type="int" name="OMEGAGRID">   140</i>
   <i name="CSHIFT">     -0.10000000</i>
   <i type="logical" name="SELFENERGY"> F  </i>
   <i type="logical" name="LSPECTRAL"> F  </i>
   <i type="logical" name="LSPECTRALGW"> F  </i>
   <i type="logical" name="LSINGLES"> F  </i>
   <i type="logical" name="LFERMIGW"> F  </i>
   <i type="logical" name="ODDONLYGW"> F  </i>
   <i type="logical" name="EVENONLYGW"> F  </i>
   <i type="int" name="NKREDLFX">     1</i>
   <i type="int" name="NKREDLFY">     1</i>
   <i type="int" name="NKREDLFZ">     1</i>
   <i type="int" name="MAXMEM">  2800</i>
   <i type="int" name="TELESCOPE">     0</i>
   <i type="int" name="TAUPAR">     1</i>
   <i type="int" name="OMEGAPAR">    -1</i>
   <i name="LAMBDA">      1.00000000</i>
  </separator>
  <separator name="External order field" >
   <i name="OFIELD_KAPPA">      0.00000000</i>
   <v name="OFIELD_K">      0.00000000      0.00000000      0.00000000</v>
   <i name="OFIELD_Q6_NEAR">      0.00000000</i>
   <i name="OFIELD_Q6_FAR">      0.00000000</i>
   <i name="OFIELD_A">      0.00000000</i>
  </separator>
 </parameters>
 <atominfo>
  <atoms>      97 </atoms>
  <types>       3 </types>
  <array name="atoms" >
   <dimension dim="1">ion</dimension>
   <field type="string">element</field>
   <field type="int">atomtype</field>
   <set>
    <rc><c>B </c><c>   1</c></rc>
    <rc><c>B </c><c>   1</c></rc>
    <rc><c>B </c><c>   1</c></rc>
    <rc><c>B </c><c>   1</c></rc>
    <rc><c>B </c><c>   1</c></rc>
    <rc><c>B </c><c>   1</c></rc>
    <rc><c>B </c><c>   1</c></rc>
    <rc><c>B </c><c>   1</c></rc>
    <rc><c>B </c><c>   1</c></rc>
    <rc><c>B </c><c>   1</c></rc>
    <rc><c>B </c><c>   1</c></rc>
    <rc><c>B </c><c>   1</c></rc>
    <rc><c>B </c><c>   1</c></rc>
    <rc><c>B </c><c>   1</c></rc>
    <rc><c>B </c><c>   1</c></rc>
    <rc><c>B </c><c>   1</c></rc>
    <rc><c>B </c><c>   1</c></rc>
    <rc><c>B </c><c>   1</c></rc>
    <rc><c>B </c><c>   1</c></rc>
    <rc><c>B </c><c>   1</c></rc>
    <rc><c>B </c><c>   1</c></rc>
    <rc><c>B </c><c>   1</c></rc>
    <rc><c>B </c><c>   1</c></rc>
    <rc><c>B </c><c>   1</c></rc>
    <rc><c>B </c><c>   1</c></rc>
    <rc><c>B </c><c>   1</c></rc>
    <rc><c>B </c><c>   1</c></rc>
    <rc><c>B </c><c>   1</c></rc>
    <rc><c>B </c><c>   1</c></rc>
    <rc><c>B </c><c>   1</c></rc>
    <rc><c>B </c><c>   1</c></rc>
    <rc><c>B </c><c>   1</c></rc>
    <rc><c>B </c><c>   1</c></rc>
    <rc><c>B </c><c>   1</c></rc>
    <rc><c>B </c><c>   1</c></rc>
    <rc><c>B </c><c>   1</c></rc>
    <rc><c>B </c><c>   1</c></rc>
    <rc><c>B </c><c>   1</c></rc>
    <rc><c>B </c><c>   1</c></rc>
    <rc><c>B </c><c>   1</c></rc>
    <rc><c>B </c><c>   1</c></rc>
    <rc><c>B </c><c>   1</c></rc>
    <rc><c>B </c><c>   1</c></rc>
    <rc><c>B </c><c>   1</c></rc>
    <rc><c>B </c><c>   1</c></rc>
    <rc><c>B </c><c>   1</c></rc>
    <rc><c>B </c><c>   1</c></rc>
    <rc><c>B </c><c>   1</c></rc>
    <rc><c>N </c><c>   2</c></rc>
    <rc><c>N </c><c>   2</c></rc>
    <rc><c>N </c><c>   2</c></rc>
    <rc><c>N </c><c>   2</c></rc>
    <rc><c>N </c><c>   2</c></rc>
    <rc><c>N </c><c>   2</c></rc>
    <rc><c>N </c><c>   2</c></rc>
    <rc><c>N </c><c>   2</c></rc>
    <rc><c>N </c><c>   2</c></rc>
    <rc><c>N </c><c>   2</c></rc>
    <rc><c>N </c><c>   2</c></rc>
    <rc><c>N </c><c>   2</c></rc>
    <rc><c>N </c><c>   2</c></rc>
    <rc><c>N </c><c>   2</c></rc>
    <rc><c>N </c><c>   2</c></rc>
    <rc><c>N </c><c>   2</c></rc>
    <rc><c>N </c><c>   2</c></rc>
    <rc><c>N </c><c>   2</c></rc>
    <rc><c>N </c><c>   2</c></rc>
    <rc><c>N </c><c>   2</c></rc>
    <rc><c>N </c><c>   2</c></rc>
    <rc><c>N </c><c>   2</c></rc>
    <rc><c>N </c><c>   2</c></rc>
    <rc><c>N </c><c>   2</c></rc>
    <rc><c>N </c><c>   2</c></rc>
    <rc><c>N </c><c>   2</c></rc>
    <rc><c>N </c><c>   2</c></rc>
    <rc><c>N </c><c>   2</c></rc>
    <rc><c>N </c><c>   2</c></rc>
    <rc><c>N </c><c>   2</c></rc>
    <rc><c>N </c><c>   2</c></rc>
    <rc><c>N </c><c>   2</c></rc>
    <rc><c>N </c><c>   2</c></rc>
    <rc><c>N </c><c>   2</c></rc>
    <rc><c>N </c><c>   2</c></rc>
    <rc><c>N </c><c>   2</c></rc>
    <rc><c>N </c><c>   2</c></rc>
    <rc><c>N </c><c>   2</c></rc>
    <rc><c>N </c><c>   2</c></rc>
    <rc><c>N </c><c>   2</c></rc>
    <rc><c>N </c><c>   2</c></rc>
    <rc><c>N </c><c>   2</c></rc>
    <rc><c>N </c><c>   2</c></rc>
    <rc><c>N </c><c>   2</c></rc>
    <rc><c>N </c><c>   2</c></rc>
    <rc><c>N </c><c>   2</c></rc>
    <rc><c>N </c><c>   2</c></rc>
    <rc><c>N </c><c>   2</c></rc>
    <rc><c>C </c><c>   3</c></rc>
   </set>
  </array>
  <array name="atomtypes" >
   <dimension dim="1">type</dimension>
   <field type="int">atomspertype</field>
   <field type="string">element</field>
   <field>mass</field>
   <field>valence</field>
   <field type="string">pseudopotential</field>
   <set>
    <rc><c>  48</c><c>B </c><c>     10.81100000</c><c>      3.00000000</c><c>  PAW_PBE B 06Sep2000                   </c></rc>
    <rc><c>  48</c><c>N </c><c>     14.00100000</c><c>      5.00000000</c><c>  PAW_PBE N 08Apr2002                   </c></rc>
    <rc><c>   1</c><c>C </c><c>     12.01100000</c><c>      4.00000000</c><c>  PAW_PBE C 08Apr2002                   </c></rc>
   </set>
  </array>
 </atominfo>
 <structure name="initialpos" >
  <crystal>
   <varray name="basis" >
    <v>      17.59966831       0.00000000       0.00000000 </v>
    <v>      -8.79983416      15.24175986       0.00000000 </v>
    <v>       0.00000000       0.00000000      19.92151445 </v>
   </varray>
   <i name="volume">   5343.94461817 </i>
   <varray name="rec_basis" >
    <v>       0.05681925       0.03280461       0.00000000 </v>
    <v>       0.00000000       0.06560922       0.00000000 </v>
    <v>       0.00000000       0.00000000       0.05019699 </v>
   </varray>
  </crystal>
  <varray name="positions" >
   <v>       0.99943010       0.00005992       0.50000000 </v>
   <v>       0.14164706       0.99871895       0.50000000 </v>
   <v>       0.28492260       0.99841663       0.50000000 </v>
   <v>       0.42850047       0.99871895       0.50000000 </v>
   <v>       0.57205839       0.00005992       0.50000000 </v>
   <v>       0.71530655       0.00214292       0.50000000 </v>
   <v>       0.85826494       0.00214292       0.50000000 </v>
   <v>       0.00080792       0.14408264       0.50000000 </v>
   <v>       0.14259355       0.14244783       0.50000000 </v>
   <v>       0.28470221       0.14112972       0.50000000 </v>
   <v>       0.42785608       0.14112972       0.50000000 </v>
   <v>       0.57128286       0.14244783       0.50000000 </v>
   <v>       0.71470329       0.14408264       0.50000000 </v>
   <v>       0.85805263       0.14467669       0.50000000 </v>
   <v>       0.00095476       0.28713011       0.50000000 </v>
   <v>       0.14372552       0.28645370       0.50000000 </v>
   <v>       0.28540977       0.28469374       0.50000000 </v>
   <v>       0.42724431       0.28306005       0.50000000 </v>
   <v>       0.57071254       0.28469374       0.50000000 </v>
   <v>       0.71415674       0.28645370       0.50000000 </v>
   <v>       0.85760392       0.28713011       0.50000000 </v>
   <v>       0.00054479       0.42966101       0.50000000 </v>
   <v>       0.14422690       0.42957551       0.50000000 </v>
   <v>       0.28730213       0.42918005       0.50000000 </v>
   <v>       0.42797654       0.42569726       0.50000000 </v>
   <v>       0.56914930       0.42569726       0.50000000 </v>
   <v>       0.71330650       0.42918005       0.50000000 </v>
   <v>       0.85677719       0.42957551       0.50000000 </v>
   <v>       0.99928255       0.57181462       0.50000000 </v>
   <v>       0.14396064       0.57181462       0.50000000 </v>
   <v>       0.28862787       0.57181625       0.50000000 </v>
   <v>       0.43313209       0.57215564       0.50000000 </v>
   <v>       0.71045212       0.57215564       0.50000000 </v>
   <v>       0.85461695       0.57181625       0.50000000 </v>
   <v>       0.99707234       0.71313699       0.50000000 </v>
   <v>       0.14255519       0.71368182       0.50000000 </v>
   <v>       0.28806142       0.71370518       0.50000000 </v>
   <v>       0.43464191       0.71382540       0.50000000 </v>
   <v>       0.58510826       0.71626937       0.50000000 </v>
   <v>       0.70258968       0.71626937       0.50000000 </v>
   <v>       0.85061206       0.71382540       0.50000000 </v>
   <v>       0.99777175       0.85613493       0.50000000 </v>
   <v>       0.14160898       0.85591288       0.50000000 </v>
   <v>       0.28573247       0.85591288       0.50000000 </v>
   <v>       0.42979175       0.85613493       0.50000000 </v>
   <v>       0.57342541       0.85758690       0.50000000 </v>
   <v>       0.71640633       0.86138410       0.50000000 </v>
   <v>       0.85559006       0.85758690       0.50000000 </v>
   <v>       0.04754270       0.09547788       0.50000000 </v>
   <v>       0.18957833       0.09405657       0.50000000 </v>
   <v>       0.33254182       0.09365506       0.50000000 </v>
   <v>       0.47590681       0.09405657       0.50000000 </v>
   <v>       0.61936376       0.09547788       0.50000000 </v>
   <v>       0.76280004       0.09719274       0.50000000 </v>
   <v>       0.90582126       0.09719274       0.50000000 </v>
   <v>       0.04854983       0.23934281       0.50000000 </v>
   <v>       0.19048138       0.23782962       0.50000000 </v>
   <v>       0.33234878       0.23634667       0.50000000 </v>
   <v>       0.47542646       0.23634667       0.50000000 </v>
   <v>       0.61877681       0.23782962       0.50000000 </v>
   <v>       0.76222155       0.23934281       0.50000000 </v>
   <v>       0.90562797       0.23982737       0.50000000 </v>
   <v>       0.04871288       0.38232824       0.50000000 </v>
   <v>       0.19188940       0.38184213       0.50000000 </v>
   <v>       0.33352206       0.38013969       0.50000000 </v>
   <v>       0.47472270       0.37801683       0.50000000 </v>
   <v>       0.61804620       0.38013969       0.50000000 </v>
   <v>       0.76138130       0.38184213       0.50000000 </v>
   <v>       0.90504393       0.38232824       0.50000000 </v>
   <v>       0.04810654       0.52478452       0.50000000 </v>
   <v>       0.19263929       0.52476864       0.50000000 </v>
   <v>       0.33696521       0.52455433       0.50000000 </v>
   <v>       0.47833704       0.52146721       0.50000000 </v>
   <v>       0.61455874       0.52146721       0.50000000 </v>
   <v>       0.75901769       0.52455433       0.50000000 </v>
   <v>       0.90355792       0.52476864       0.50000000 </v>
   <v>       0.04642473       0.66685228       0.50000000 </v>
   <v>       0.19185612       0.66685228       0.50000000 </v>
   <v>       0.33777931       0.66688794       0.50000000 </v>
   <v>       0.48615700       0.66710760       0.50000000 </v>
   <v>       0.75237918       0.66710760       0.50000000 </v>
   <v>       0.90053720       0.66688794       0.50000000 </v>
   <v>       0.04582562       0.80879365       0.50000000 </v>
   <v>       0.19009580       0.80876303       0.50000000 </v>
   <v>       0.33439660       0.80879365       0.50000000 </v>
   <v>       0.47844872       0.80897069       0.50000000 </v>
   <v>       0.62209487       0.81129474       0.50000000 </v>
   <v>       0.76062845       0.81129474       0.50000000 </v>
   <v>       0.90195054       0.80897069       0.50000000 </v>
   <v>       0.04629157       0.95154386       0.50000000 </v>
   <v>       0.18948291       0.95113037       0.50000000 </v>
   <v>       0.33307603       0.95113037       0.50000000 </v>
   <v>       0.47668087       0.95154386       0.50000000 </v>
   <v>       0.62015751       0.95313740       0.50000000 </v>
   <v>       0.76355772       0.95568687       0.50000000 </v>
   <v>       0.90440847       0.95313740       0.50000000 </v>
   <v>       0.56830873       0.56518888       0.50000000 </v>
  </varray>
 </structure>
 <calculation>
  <scstep>
   <time name="dav">    2.36    2.38</time>
   <time name="total">    2.73    2.81</time>
   <energy>
    <i name="alphaZ">    156.50993408 </i>
    <i name="ewald">  58206.75789245 </i>
    <i name="hartreedc"> -70374.19905002 </i>
    <i name="XCdc">   1302.10834221 </i>
    <i name="pawpsdc">  12033.28670802 </i>
    <i name="pawaedc"> -12049.96799276 </i>
    <i name="eentropy">     -0.00000000 </i>
    <i name="bandstr">   -904.55155414 </i>
    <i name="atom">  16260.93880140 </i>
    <i name="e_fr_energy">   4630.88308124 </i>
    <i name="e_wo_entrp">   4630.88308124 </i>
    <i name="e_0_energy">   4630.88308124 </i>
   </energy>
  </scstep>
  <scstep>
   <time name="dav">    3.00    3.03</time>
   <time name="total">    3.00    3.03</time>
   <energy>
    <i name="e_fr_energy">    216.71123428 </i>
    <i name="e_wo_entrp">    216.71123428 </i>
    <i name="e_0_energy">    216.71123428 </i>
   </energy>
  </scstep>
  <scstep>
   <time name="dav">    2.49    2.52</time>
   <time name="total">    2.49    2.52</time>
   <energy>
    <i name="e_fr_energy">   -867.47213896 </i>
    <i name="e_wo_entrp">   -867.47213896 </i>
    <i name="e_0_energy">   -867.47213896 </i>
   </energy>
  </scstep>
  <scstep>
   <time name="dav">    2.48    2.50</time>
   <time name="total">    2.48    2.50</time>
   <energy>
    <i name="e_fr_energy">   -934.19425385 </i>
    <i name="e_wo_entrp">   -934.19425385 </i>
    <i name="e_0_energy">   -934.19425385 </i>
   </energy>
  </scstep>
  <scstep>
   <time name="dav">    2.50    2.53</time>
   <time name="total">    2.94    2.98</time>
   <energy>
    <i name="e_fr_energy">   -935.77396811 </i>
    <i name="e_wo_entrp">   -935.77396811 </i>
    <i name="e_0_energy">   -935.77396811 </i>
   </energy>
  </scstep>
  <scstep>
   <time name="dav">    2.33    2.35</time>
   <time name="total">    3.13    3.17</time>
   <energy>
    <i name="e_fr_energy">   -858.73168074 </i>
    <i name="e_wo_entrp">   -858.73168074 </i>
    <i name="e_0_energy">   -858.73168074 </i>
   </energy>
  </scstep>
  <scstep>
   <time name="dav">    2.37    2.39</time>
   <time name="total">    3.18    3.21</time>
   <energy>
    <i name="e_fr_energy">   -850.19328708 </i>
    <i name="e_wo_entrp">   -850.19328708 </i>
    <i name="e_0_energy">   -850.19328708 </i>
   </energy>
  </scstep>
  <scstep>
   <time name="dav">    2.29    2.30</time>
   <time name="total">    3.09    3.12</time>
   <energy>
    <i name="e_fr_energy">   -845.92598561 </i>
    <i name="e_wo_entrp">   -845.92598460 </i>
    <i name="e_0_energy">   -845.92598511 </i>
   </energy>
  </scstep>
  <scstep>
   <time name="dav">    2.31    2.33</time>
   <time name="total">    3.12    3.15</time>
   <energy>
    <i name="e_fr_energy">   -845.80056904 </i>
    <i name="e_wo_entrp">   -845.80056904 </i>
    <i name="e_0_energy">   -845.80056904 </i>
   </energy>
  </scstep>
  <scstep>
   <time name="dav">    2.39    2.41</time>
   <time name="total">    3.20    3.24</time>
   <energy>
    <i name="e_fr_energy">   -845.63943074 </i>
    <i name="e_wo_entrp">   -845.63943074 </i>
    <i name="e_0_energy">   -845.63943074 </i>
   </energy>
  </scstep>
  <scstep>
   <time name="dav">    2.26    2.28</time>
   <time name="total">    3.07    3.10</time>
   <energy>
    <i name="e_fr_energy">   -845.58673601 </i>
    <i name="e_wo_entrp">   -845.58673601 </i>
    <i name="e_0_energy">   -845.58673601 </i>
   </energy>
  </scstep>
  <scstep>
   <time name="dav">    2.26    2.28</time>
   <time name="total">    3.06    3.10</time>
   <energy>
    <i name="e_fr_energy">   -845.57377938 </i>
    <i name="e_wo_entrp">   -845.57377938 </i>
    <i name="e_0_energy">   -845.57377938 </i>
   </energy>
  </scstep>
  <scstep>
   <time name="dav">    2.24    2.26</time>
   <time name="total">    3.05    3.08</time>
   <energy>
    <i name="e_fr_energy">   -845.58438769 </i>
    <i name="e_wo_entrp">   -845.58438769 </i>
    <i name="e_0_energy">   -845.58438769 </i>
   </energy>
  </scstep>
  <scstep>
   <time name="dav">    2.23    2.25</time>
   <time name="total">    3.04    3.07</time>
   <energy>
    <i name="e_fr_energy">   -845.59392928 </i>
    <i name="e_wo_entrp">   -845.59392928 </i>
    <i name="e_0_energy">   -845.59392928 </i>
   </energy>
  </scstep>
  <scstep>
   <time name="dav">    2.18    2.20</time>
   <time name="total">    2.99    3.02</time>
   <energy>
    <i name="e_fr_energy">   -845.62515947 </i>
    <i name="e_wo_entrp">   -845.62515947 </i>
    <i name="e_0_energy">   -845.62515947 </i>
   </energy>
  </scstep>
  <scstep>
   <time name="dav">    2.21    2.22</time>
   <time name="total">    3.01    3.05</time>
   <energy>
    <i name="e_fr_energy">   -845.64162257 </i>
    <i name="e_wo_entrp">   -845.64162257 </i>
    <i name="e_0_energy">   -845.64162257 </i>
   </energy>
  </scstep>
  <scstep>
   <time name="dav">    2.31    2.32</time>
   <time name="total">    3.11    3.15</time>
   <energy>
    <i name="e_fr_energy">   -845.64784952 </i>
    <i name="e_wo_entrp">   -845.64784952 </i>
    <i name="e_0_energy">   -845.64784952 </i>
   </energy>
  </scstep>
  <scstep>
   <time name="dav">    2.21    2.22</time>
   <time name="total">    3.01    3.05</time>
   <energy>
    <i name="e_fr_energy">   -845.65104880 </i>
    <i name="e_wo_entrp">   -845.65104880 </i>
    <i name="e_0_energy">   -845.65104880 </i>
   </energy>
  </scstep>
  <scstep>
   <time name="dav">    2.31    2.33</time>
   <time name="total">    3.12    3.16</time>
   <energy>
    <i name="e_fr_energy">   -845.65207800 </i>
    <i name="e_wo_entrp">   -845.65207800 </i>
    <i name="e_0_energy">   -845.65207800 </i>
   </energy>
  </scstep>
  <scstep>
   <time name="dav">    2.23    2.25</time>
   <time name="total">    3.04    3.08</time>
   <energy>
    <i name="e_fr_energy">   -845.65249379 </i>
    <i name="e_wo_entrp">   -845.65249379 </i>
    <i name="e_0_energy">   -845.65249379 </i>
   </energy>
  </scstep>
  <scstep>
   <time name="dav">    2.27    2.30</time>
   <time name="total">    3.09    3.13</time>
   <energy>
    <i name="e_fr_energy">   -845.65269690 </i>
    <i name="e_wo_entrp">   -845.65269690 </i>
    <i name="e_0_energy">   -845.65269690 </i>
   </energy>
  </scstep>
  <scstep>
   <time name="dav">    2.31    2.34</time>
   <time name="total">    3.12    3.17</time>
   <energy>
    <i name="e_fr_energy">   -845.65280764 </i>
    <i name="e_wo_entrp">   -845.65280764 </i>
    <i name="e_0_energy">   -845.65280764 </i>
   </energy>
  </scstep>
  <scstep>
   <time name="dav">    2.22    2.24</time>
   <time name="total">    3.04    3.07</time>
   <energy>
    <i name="e_fr_energy">   -845.65288738 </i>
    <i name="e_wo_entrp">   -845.65288738 </i>
    <i name="e_0_energy">   -845.65288738 </i>
   </energy>
  </scstep>
  <scstep>
   <time name="dav">    2.23    2.25</time>
   <time name="total">    3.04    3.08</time>
   <energy>
    <i name="e_fr_energy">   -845.65292642 </i>
    <i name="e_wo_entrp">   -845.65292642 </i>
    <i name="e_0_energy">   -845.65292642 </i>
   </energy>
  </scstep>
  <scstep>
   <time name="dav">    2.26    2.28</time>
   <time name="total">    3.07    3.10</time>
   <energy>
    <i name="e_fr_energy">   -845.65294452 </i>
    <i name="e_wo_entrp">   -845.65294452 </i>
    <i name="e_0_energy">   -845.65294452 </i>
   </energy>
  </scstep>
  <scstep>
   <time name="dav">    2.22    2.24</time>
   <time name="total">    3.03    3.07</time>
   <energy>
    <i name="e_fr_energy">   -845.65296107 </i>
    <i name="e_wo_entrp">   -845.65296107 </i>
    <i name="e_0_energy">   -845.65296107 </i>
   </energy>
  </scstep>
  <scstep>
   <time name="dav">    2.19    2.21</time>
   <time name="total">    3.01    3.04</time>
   <energy>
    <i name="e_fr_energy">   -845.65296431 </i>
    <i name="e_wo_entrp">   -845.65296431 </i>
    <i name="e_0_energy">   -845.65296431 </i>
   </energy>
  </scstep>
  <scstep>
   <time name="dav">    1.95    1.97</time>
   <time name="total">    2.77    2.80</time>
   <energy>
    <i name="e_fr_energy">   -845.65296562 </i>
    <i name="e_wo_entrp">   -845.65296562 </i>
    <i name="e_0_energy">   -845.65296562 </i>
   </energy>
  </scstep>
  <scstep>
   <time name="dav">    1.79    1.81</time>
   <time name="total">    2.62    2.65</time>
   <energy>
    <i name="e_fr_energy">   -845.65296592 </i>
    <i name="e_wo_entrp">   -845.65296592 </i>
    <i name="e_0_energy">   -845.65296592 </i>
   </energy>
  </scstep>
  <scstep>
   <time name="dav">    1.69    1.71</time>
   <time name="total">    2.51    2.54</time>
   <energy>
    <i name="e_fr_energy">   -845.65296604 </i>
    <i name="e_wo_entrp">   -845.65296604 </i>
    <i name="e_0_energy">   -845.65296604 </i>
   </energy>
  </scstep>
  <scstep>
   <time name="dav">    1.67    1.69</time>
   <time name="total">    2.49    2.53</time>
   <energy>
    <i name="e_fr_energy">   -845.65296609 </i>
    <i name="e_wo_entrp">   -845.65296609 </i>
    <i name="e_0_energy">   -845.65296609 </i>
   </energy>
  </scstep>
  <scstep>
   <time name="dav">    1.72    1.73</time>
   <time name="total">    2.55    2.57</time>
   <energy>
    <i name="e_fr_energy">   -845.65296612 </i>
    <i name="e_wo_entrp">   -845.65296612 </i>
    <i name="e_0_energy">   -845.65296612 </i>
   </energy>
  </scstep>
  <scstep>
   <time name="dav">    1.83    1.85</time>
   <time name="total">    2.21    2.23</time>
   <energy>
    <i name="alphaZ">    156.50993408 </i>
    <i name="ewald">  58206.75789245 </i>
    <i name="hartreedc"> -72314.26677000 </i>
    <i name="XCdc">   1369.72291325 </i>
    <i name="pawpsdc">  44018.35027134 </i>
    <i name="pawaedc"> -44053.69194550 </i>
    <i name="eentropy">     -0.00000000 </i>
    <i name="bandstr">  -4489.97406315 </i>
    <i name="atom">  16260.93880140 </i>
    <i name="e_fr_energy">   -845.65296613 </i>
    <i name="e_wo_entrp">   -845.65296613 </i>
    <i name="e_0_energy">   -845.65296613 </i>
   </energy>
  </scstep>
  <structure>
   <crystal>
    <varray name="basis" >
     <v>      17.59966831       0.00000000       0.00000000 </v>
     <v>      -8.79983416      15.24175986       0.00000000 </v>
     <v>       0.00000000       0.00000000      19.92151445 </v>
    </varray>
    <i name="volume">   5343.94461817 </i>
    <varray name="rec_basis" >
     <v>       0.05681925       0.03280461       0.00000000 </v>
     <v>       0.00000000       0.06560922       0.00000000 </v>
     <v>       0.00000000       0.00000000       0.05019699 </v>
    </varray>
   </crystal>
   <varray name="positions" >
    <v>       0.99943010       0.00005992       0.50000000 </v>
    <v>       0.14164706       0.99871895       0.50000000 </v>
    <v>       0.28492260       0.99841663       0.50000000 </v>
    <v>       0.42850047       0.99871895       0.50000000 </v>
    <v>       0.57205839       0.00005992       0.50000000 </v>
    <v>       0.71530655       0.00214292       0.50000000 </v>
    <v>       0.85826494       0.00214292       0.50000000 </v>
    <v>       0.00080792       0.14408264       0.50000000 </v>
    <v>       0.14259355       0.14244783       0.50000000 </v>
    <v>       0.28470221       0.14112972       0.50000000 </v>
    <v>       0.42785608       0.14112972       0.50000000 </v>
    <v>       0.57128286       0.14244783       0.50000000 </v>
    <v>       0.71470329       0.14408264       0.50000000 </v>
    <v>       0.85805263       0.14467669       0.50000000 </v>
    <v>       0.00095476       0.28713011       0.50000000 </v>
    <v>       0.14372552       0.28645370       0.50000000 </v>
    <v>       0.28540977       0.28469374       0.50000000 </v>
    <v>       0.42724431       0.28306005       0.50000000 </v>
    <v>       0.57071254       0.28469374       0.50000000 </v>
    <v>       0.71415674       0.28645370       0.50000000 </v>
    <v>       0.85760392       0.28713011       0.50000000 </v>
    <v>       0.00054479       0.42966101       0.50000000 </v>
    <v>       0.14422690       0.42957551       0.50000000 </v>
    <v>       0.28730213       0.42918005       0.50000000 </v>
    <v>       0.42797654       0.42569726       0.50000000 </v>
    <v>       0.56914930       0.42569726       0.50000000 </v>
    <v>       0.71330650       0.42918005       0.50000000 </v>
    <v>       0.85677719       0.42957551       0.50000000 </v>
    <v>       0.99928255       0.57181462       0.50000000 </v>
    <v>       0.14396064       0.57181462       0.50000000 </v>
    <v>       0.28862787       0.57181625       0.50000000 </v>
    <v>       0.43313209       0.57215564       0.50000000 </v>
    <v>       0.71045212       0.57215564       0.50000000 </v>
    <v>       0.85461695       0.57181625       0.50000000 </v>
    <v>       0.99707234       0.71313699       0.50000000 </v>
    <v>       0.14255519       0.71368182       0.50000000 </v>
    <v>       0.28806142       0.71370518       0.50000000 </v>
    <v>       0.43464191       0.71382540       0.50000000 </v>
    <v>       0.58510826       0.71626937       0.50000000 </v>
    <v>       0.70258968       0.71626937       0.50000000 </v>
    <v>       0.85061206       0.71382540       0.50000000 </v>
    <v>       0.99777175       0.85613493       0.50000000 </v>
    <v>       0.14160898       0.85591288       0.50000000 </v>
    <v>       0.28573247       0.85591288       0.50000000 </v>
    <v>       0.42979175       0.85613493       0.50000000 </v>
    <v>       0.57342541       0.85758690       0.50000000 </v>
    <v>       0.71640633       0.86138410       0.50000000 </v>
    <v>       0.85559006       0.85758690       0.50000000 </v>
    <v>       0.04754270       0.09547788       0.50000000 </v>
    <v>       0.18957833       0.09405657       0.50000000 </v>
    <v>       0.33254182       0.09365506       0.50000000 </v>
    <v>       0.47590681       0.09405657       0.50000000 </v>
    <v>       0.61936376       0.09547788       0.50000000 </v>
    <v>       0.76280004       0.09719274       0.50000000 </v>
    <v>       0.90582126       0.09719274       0.50000000 </v>
    <v>       0.04854983       0.23934281       0.50000000 </v>
    <v>       0.19048138       0.23782962       0.50000000 </v>
    <v>       0.33234878       0.23634667       0.50000000 </v>
    <v>       0.47542646       0.23634667       0.50000000 </v>
    <v>       0.61877681       0.23782962       0.50000000 </v>
    <v>       0.76222155       0.23934281       0.50000000 </v>
    <v>       0.90562797       0.23982737       0.50000000 </v>
    <v>       0.04871288       0.38232824       0.50000000 </v>
    <v>       0.19188940       0.38184213       0.50000000 </v>
    <v>       0.33352206       0.38013969       0.50000000 </v>
    <v>       0.47472270       0.37801683       0.50000000 </v>
    <v>       0.61804620       0.38013969       0.50000000 </v>
    <v>       0.76138130       0.38184213       0.50000000 </v>
    <v>       0.90504393       0.38232824       0.50000000 </v>
    <v>       0.04810654       0.52478452       0.50000000 </v>
    <v>       0.19263929       0.52476864       0.50000000 </v>
    <v>       0.33696521       0.52455433       0.50000000 </v>
    <v>       0.47833704       0.52146721       0.50000000 </v>
    <v>       0.61455874       0.52146721       0.50000000 </v>
    <v>       0.75901769       0.52455433       0.50000000 </v>
    <v>       0.90355792       0.52476864       0.50000000 </v>
    <v>       0.04642473       0.66685228       0.50000000 </v>
    <v>       0.19185612       0.66685228       0.50000000 </v>
    <v>       0.33777931       0.66688794       0.50000000 </v>
    <v>       0.48615700       0.66710760       0.50000000 </v>
    <v>       0.75237918       0.66710760       0.50000000 </v>
    <v>       0.90053720       0.66688794       0.50000000 </v>
    <v>       0.04582562       0.80879365       0.50000000 </v>
    <v>       0.19009580       0.80876303       0.50000000 </v>
    <v>       0.33439660       0.80879365       0.50000000 </v>
    <v>       0.47844872       0.80897069       0.50000000 </v>
    <v>       0.62209487       0.81129474       0.50000000 </v>
    <v>       0.76062845       0.81129474       0.50000000 </v>
    <v>       0.90195054       0.80897069       0.50000000 </v>
    <v>       0.04629157       0.95154386       0.50000000 </v>
    <v>       0.18948291       0.95113037       0.50000000 </v>
    <v>       0.33307603       0.95113037       0.50000000 </v>
    <v>       0.47668087       0.95154386       0.50000000 </v>
    <v>       0.62015751       0.95313740       0.50000000 </v>
    <v>       0.76355772       0.95568687       0.50000000 </v>
    <v>       0.90440847       0.95313740       0.50000000 </v>
    <v>       0.56830873       0.56518888       0.50000000 </v>
   </varray>
  </structure>
  <varray name="forces" >
   <v>      -0.03434088      -0.03013169       0.00000000 </v>
   <v>      -0.02248176      -0.01604165       0.00000000 </v>
   <v>      -0.00759498      -0.01449714       0.00000000 </v>
   <v>       0.02011730      -0.01009079       0.00000000 </v>
   <v>       0.03985637      -0.02684235       0.00000000 </v>
   <v>      -0.03248089      -0.05068984      -0.00000000 </v>
   <v>       0.03667155      -0.05162457       0.00000000 </v>
   <v>      -0.00399975      -0.02938674       0.00000000 </v>
   <v>      -0.02577193      -0.02840457       0.00000000 </v>
   <v>      -0.00948941      -0.03599160       0.00000000 </v>
   <v>       0.00557718      -0.03461625       0.00000000 </v>
   <v>       0.02619681      -0.02646041       0.00000000 </v>
   <v>       0.00616128      -0.02857625       0.00000000 </v>
   <v>       0.00125206      -0.04371264       0.00000000 </v>
   <v>      -0.00743137      -0.03227151       0.00000000 </v>
   <v>       0.00654667      -0.04653720       0.00000000 </v>
   <v>      -0.03035733      -0.00429693       0.00000000 </v>
   <v>      -0.00089200      -0.09479990       0.00000000 </v>
   <v>       0.02928707      -0.00327013      -0.00000000 </v>
   <v>      -0.00593211      -0.04618792       0.00000000 </v>
   <v>       0.00871375      -0.03290582       0.00000000 </v>
   <v>       0.00056699       0.00086503       0.00000000 </v>
   <v>      -0.02350021      -0.00350112       0.00000000 </v>
   <v>       0.05865865      -0.13939203       0.00000000 </v>
   <v>      -0.11173067      -0.20047911       0.00000000 </v>
   <v>       0.11127047      -0.20002355       0.00000000 </v>
   <v>      -0.06041034      -0.13734385       0.00000000 </v>
   <v>       0.02486512      -0.00745018       0.00000000 </v>
   <v>       0.03083659      -0.01360212      -0.00000000 </v>
   <v>      -0.01104451       0.02651606       0.00000000 </v>
   <v>      -0.08268284       0.12850285       0.00000000 </v>
   <v>       0.05169180       0.39700516       0.00000000 </v>
   <v>      -0.05104409       0.39775944       0.00000000 </v>
   <v>       0.05942011       0.12724171       0.00000000 </v>
   <v>      -0.24319894       0.44192053       0.00000000 </v>
   <v>       0.02911017       0.05806450       0.00000000 </v>
   <v>       0.01347128       0.02779924       0.00000000 </v>
   <v>       0.08841089       0.04424450       0.00000000 </v>
   <v>       1.36501725       1.25156185       0.00000000 </v>
   <v>      -1.36398852       1.25319814       0.00000000 </v>
   <v>      -0.07433831       0.06334495       0.00000000 </v>
   <v>      -0.01673307      -0.04124597       0.00000000 </v>
   <v>      -0.05439843      -0.01427363      -0.00000000 </v>
   <v>       0.01235274      -0.00315664      -0.00000000 </v>
   <v>       0.04797793      -0.00646339       0.00000000 </v>
   <v>       0.15222974       0.03646579       0.00000000 </v>
   <v>       0.00169542      -0.25276324       0.00000000 </v>
   <v>      -0.14529851       0.03344178       0.00000000 </v>
   <v>       0.02466337       0.03548936      -0.00000000 </v>
   <v>       0.01085043       0.02814265       0.00000000 </v>
   <v>       0.00252641       0.02969077      -0.00000000 </v>
   <v>      -0.00918678       0.02372726       0.00000000 </v>
   <v>      -0.02610846       0.03272182      -0.00000000 </v>
   <v>      -0.01324598       0.02830309      -0.00000000 </v>
   <v>       0.01080317       0.02908237       0.00000000 </v>
   <v>       0.01485327       0.03801795       0.00000000 </v>
   <v>      -0.00950102       0.00607514       0.00000000 </v>
   <v>       0.01614115       0.03791329       0.00000000 </v>
   <v>      -0.01458300       0.03686027       0.00000000 </v>
   <v>       0.00978632       0.00448090       0.00000000 </v>
   <v>      -0.01574309       0.03745828      -0.00000000 </v>
   <v>      -0.00088532       0.03372652       0.00000000 </v>
   <v>       0.00911900       0.02961920      -0.00000000 </v>
   <v>       0.04615712       0.06166602       0.00000000 </v>
   <v>      -0.02254706      -0.19848638       0.00000000 </v>
   <v>       0.00025074       0.11114682       0.00000000 </v>
   <v>       0.02295363      -0.19982915       0.00000000 </v>
   <v>      -0.04498659       0.06189576       0.00000000 </v>
   <v>      -0.01090822       0.03074329      -0.00000000 </v>
   <v>      -0.00736176       0.01586102       0.00000000 </v>
   <v>       0.02152013      -0.00496144       0.00000000 </v>
   <v>       0.18834105       0.11323108      -0.00000000 </v>
   <v>       1.02244307      -1.56341518      -0.00000000 </v>
   <v>      -1.02304193      -1.56384150       0.00000000 </v>
   <v>      -0.18846974       0.10676445      -0.00000000 </v>
   <v>      -0.01478663       0.00130453       0.00000000 </v>
   <v>       0.13973184      -0.15161037      -0.00000000 </v>
   <v>      -0.02254500      -0.03493132      -0.00000000 </v>
   <v>      -0.06198889      -0.06745248       0.00000000 </v>
   <v>      -0.27187869       0.00878980      -0.00000000 </v>
   <v>       0.27355613       0.00502749       0.00000000 </v>
   <v>       0.10214383      -0.13582673       0.00000000 </v>
   <v>       0.07454467      -0.19626700      -0.00000000 </v>
   <v>       0.01056028      -0.03011621      -0.00000000 </v>
   <v>      -0.03667631      -0.01675376       0.00000000 </v>
   <v>      -0.08636910      -0.01443262       0.00000000 </v>
   <v>      -0.88774242       0.24335889      -0.00000000 </v>
   <v>       0.88270397       0.24229670       0.00000000 </v>
   <v>       0.07238578      -0.01839856      -0.00000000 </v>
   <v>       0.02946378       0.02675083       0.00000000 </v>
   <v>       0.01820234       0.00703940       0.00000000 </v>
   <v>      -0.00654297      -0.00535081       0.00000000 </v>
   <v>      -0.03122315       0.01611549      -0.00000000 </v>
   <v>      -0.11130892       0.11906668       0.00000000 </v>
   <v>      -0.00190463       0.01660472      -0.00000000 </v>
   <v>       0.10662556       0.12101810       0.00000000 </v>
   <v>       0.00039428      -0.11921719       0.00000000 </v>
  </varray>
  <varray name="stress" >
   <v>     -10.57653072      -0.01528569       0.00000000 </v>
   <v>      -0.01528569       3.00169665       0.00000000 </v>
   <v>       0.00000000       0.00000000      -0.42555999 </v>
  </varray>
  <energy>
   <i name="e_fr_energy">   -845.65296613 </i>
   <i name="e_wo_entrp">   -845.65296613 </i>
   <i name="e_0_energy">     -0.00000000 </i>
  </energy>
  <time name="totalsc">  104.01  105.25</time>
  <eigenvalues>
   <array>
    <dimension dim="1">band</dimension>
    <dimension dim="2">kpoint</dimension>
    <dimension dim="3">spin</dimension>
    <field>eigene</field>
    <field>occ</field>
    <set>
     <set comment="spin 1">
      <set comment="kpoint 1">
       <r>  -22.5410    1.0000 </r>
       <r>  -22.0200    1.0000 </r>
       <r>  -21.7741    1.0000 </r>
       <r>  -21.7454    1.0000 </r>
       <r>  -21.6980    1.0000 </r>
       <r>  -21.6516    1.0000 </r>
       <r>  -21.6169    1.0000 </r>
       <r>  -21.2359    1.0000 </r>
       <r>  -21.0682    1.0000 </r>
       <r>  -21.0075    1.0000 </r>
       <r>  -20.9703    1.0000 </r>
       <r>  -20.9255    1.0000 </r>
       <r>  -20.8767    1.0000 </r>
       <r>  -20.7466    1.0000 </r>
       <r>  -20.7021    1.0000 </r>
       <r>  -20.6620    1.0000 </r>
       <r>  -20.5943    1.0000 </r>
       <r>  -20.5667    1.0000 </r>
       <r>  -20.4283    1.0000 </r>
       <r>  -19.9829    1.0000 </r>
       <r>  -19.9223    1.0000 </r>
       <r>  -19.8048    1.0000 </r>
       <r>  -19.7627    1.0000 </r>
       <r>  -19.7363    1.0000 </r>
       <r>  -19.7339    1.0000 </r>
       <r>  -19.7074    1.0000 </r>
       <r>  -19.7014    1.0000 </r>
       <r>  -19.6461    1.0000 </r>
       <r>  -19.6390    1.0000 </r>
       <r>  -19.6292    1.0000 </r>
       <r>  -19.4933    1.0000 </r>
       <r>  -19.4058    1.0000 </r>
       <r>  -19.3620    1.0000 </r>
       <r>  -19.3548    1.0000 </r>
       <r>  -19.2943    1.0000 </r>
       <r>  -19.2360    1.0000 </r>
       <r>  -19.1089    1.0000 </r>
       <r>  -19.0007    1.0000 </r>
       <r>  -18.9295    1.0000 </r>
       <r>  -18.8760    1.0000 </r>
       <r>  -18.8530    1.0000 </r>
       <r>  -18.8354    1.0000 </r>
       <r>  -18.7692    1.0000 </r>
       <r>  -18.7500    1.0000 </r>
       <r>  -18.7276    1.0000 </r>
       <r>  -18.7149    1.0000 </r>
       <r>  -18.6927    1.0000 </r>
       <r>  -18.4435    1.0000 </r>
       <r>  -14.1409    1.0000 </r>
       <r>  -13.1810    1.0000 </r>
       <r>  -13.1569    1.0000 </r>
       <r>  -13.1088    1.0000 </r>
       <r>  -13.1048    1.0000 </r>
       <r>  -13.0790    1.0000 </r>
       <r>  -13.0199    1.0000 </r>
       <r>  -12.9577    1.0000 </r>
       <r>  -12.9513    1.0000 </r>
       <r>  -12.9370    1.0000 </r>
       <r>  -12.8027    1.0000 </r>
       <r>  -12.7673    1.0000 </r>
       <r>  -12.6019    1.0000 </r>
       <r>  -12.5058    1.0000 </r>
       <r>  -12.4855    1.0000 </r>
       <r>  -12.3774    1.0000 </r>
       <r>  -12.3063    1.0000 </r>
       <r>  -12.2969    1.0000 </r>
       <r>  -12.1779    1.0000 </r>
       <r>  -11.9027    1.0000 </r>
       <r>  -11.8837    1.0000 </r>
       <r>  -11.7676    1.0000 </r>
       <r>  -11.7650    1.0000 </r>
       <r>  -11.7512    1.0000 </r>
       <r>  -11.7404    1.0000 </r>
       <r>  -11.6941    1.0000 </r>
       <r>  -11.6562    1.0000 </r>
       <r>  -11.6330    1.0000 </r>
       <r>  -11.5412    1.0000 </r>
       <r>  -11.4215    1.0000 </r>
       <r>  -11.1982    1.0000 </r>
       <r>  -11.1242    1.0000 </r>
       <r>  -11.0850    1.0000 </r>
       <r>  -11.0572    1.0000 </r>
       <r>  -10.9668    1.0000 </r>
       <r>  -10.9121    1.0000 </r>
       <r>  -10.6872    1.0000 </r>
       <r>  -10.4602    1.0000 </r>
       <r>  -10.4288    1.0000 </r>
       <r>  -10.3479    1.0000 </r>
       <r>  -10.2557    1.0000 </r>
       <r>  -10.2089    1.0000 </r>
       <r>   -9.8911    1.0000 </r>
       <r>   -9.7719    1.0000 </r>
       <r>   -9.7649    1.0000 </r>
       <r>   -9.7247    1.0000 </r>
       <r>   -9.6779    1.0000 </r>
       <r>   -9.5828    1.0000 </r>
       <r>   -9.5409    1.0000 </r>
       <r>   -9.4986    1.0000 </r>
       <r>   -9.4639    1.0000 </r>
       <r>   -9.3520    1.0000 </r>
       <r>   -9.3470    1.0000 </r>
       <r>   -9.2892    1.0000 </r>
       <r>   -9.2607    1.0000 </r>
       <r>   -9.2563    1.0000 </r>
       <r>   -9.2496    1.0000 </r>
       <r>   -9.2380    1.0000 </r>
       <r>   -9.2241    1.0000 </r>
       <r>   -9.2232    1.0000 </r>
       <r>   -9.2067    1.0000 </r>
       <r>   -9.2020    1.0000 </r>
       <r>   -9.1997    1.0000 </r>
       <r>   -9.1958    1.0000 </r>
       <r>   -9.1577    1.0000 </r>
       <r>   -9.1353    1.0000 </r>
       <r>   -9.1134    1.0000 </r>
       <r>   -9.1086    1.0000 </r>
       <r>   -9.1024    1.0000 </r>
       <r>   -9.0438    1.0000 </r>
       <r>   -8.9925    1.0000 </r>
       <r>   -8.8479    1.0000 </r>
       <r>   -8.7946    1.0000 </r>
       <r>   -8.6531    1.0000 </r>
       <r>   -8.5052    1.0000 </r>
       <r>   -8.4787    1.0000 </r>
       <r>   -8.4453    1.0000 </r>
       <r>   -8.3272    1.0000 </r>
       <r>   -8.2212    1.0000 </r>
       <r>   -8.2015    1.0000 </r>
       <r>   -8.2001    1.0000 </r>
       <r>   -8.1720    1.0000 </r>
       <r>   -8.1491    1.0000 </r>
       <r>   -8.1220    1.0000 </r>
       <r>   -8.0400    1.0000 </r>
       <r>   -7.9702    1.0000 </r>
       <r>   -7.9520    1.0000 </r>
       <r>   -7.8777    1.0000 </r>
       <r>   -7.8482    1.0000 </r>
       <r>   -7.8461    1.0000 </r>
       <r>   -7.8008    1.0000 </r>
       <r>   -7.7984    1.0000 </r>
       <r>   -7.7982    1.0000 </r>
       <r>   -7.7370    1.0000 </r>
       <r>   -7.7327    1.0000 </r>
       <r>   -7.7100    1.0000 </r>
       <r>   -7.6778    1.0000 </r>
       <r>   -7.6750    1.0000 </r>
       <r>   -7.6639    1.0000 </r>
       <r>   -7.6370    1.0000 </r>
       <r>   -7.6254    1.0000 </r>
       <r>   -7.4424    1.0000 </r>
       <r>   -7.4383    1.0000 </r>
       <r>   -7.4288    1.0000 </r>
       <r>   -7.3835    1.0000 </r>
       <r>   -7.3593    1.0000 </r>
       <r>   -7.2724    1.0000 </r>
       <r>   -6.8333    1.0000 </r>
       <r>   -6.7610    1.0000 </r>
       <r>   -6.6204    1.0000 </r>
       <r>   -6.6041    1.0000 </r>
       <r>   -6.5441    1.0000 </r>
       <r>   -6.5411    1.0000 </r>
       <r>   -6.4997    1.0000 </r>
       <r>   -6.4894    1.0000 </r>
       <r>   -6.4561    1.0000 </r>
       <r>   -6.4530    1.0000 </r>
       <r>   -6.4409    1.0000 </r>
       <r>   -6.4366    1.0000 </r>
       <r>   -6.4106    1.0000 </r>
       <r>   -6.4070    1.0000 </r>
       <r>   -6.3613    1.0000 </r>
       <r>   -6.3460    1.0000 </r>
       <r>   -6.3167    1.0000 </r>
       <r>   -6.1110    1.0000 </r>
       <r>   -5.9699    1.0000 </r>
       <r>   -5.9235    1.0000 </r>
       <r>   -5.8856    1.0000 </r>
       <r>   -5.8791    1.0000 </r>
       <r>   -5.8604    1.0000 </r>
       <r>   -5.7840    1.0000 </r>
       <r>   -5.7769    1.0000 </r>
       <r>   -5.5287    1.0000 </r>
       <r>   -5.2222    1.0000 </r>
       <r>   -5.1972    1.0000 </r>
       <r>   -5.1937    1.0000 </r>
       <r>   -5.1418    1.0000 </r>
       <r>   -5.1320    1.0000 </r>
       <r>   -5.1043    1.0000 </r>
       <r>   -5.0017    1.0000 </r>
       <r>   -4.9427    1.0000 </r>
       <r>   -4.9176    1.0000 </r>
       <r>   -4.9057    1.0000 </r>
       <r>   -4.9015    1.0000 </r>
       <r>   -4.7306    1.0000 </r>
       <r>   -1.3154    1.0000 </r>
       <r>   -1.2024    0.0000 </r>
       <r>    0.0598    0.0000 </r>
       <r>    0.2048    0.0000 </r>
       <r>    0.2406    0.0000 </r>
       <r>    0.2560    0.0000 </r>
       <r>    0.2634    0.0000 </r>
       <r>    0.3021    0.0000 </r>
       <r>    0.3054    0.0000 </r>
       <r>    0.3755    0.0000 </r>
       <r>    0.3952    0.0000 </r>
       <r>    0.4330    0.0000 </r>
       <r>    0.4782    0.0000 </r>
       <r>    0.5266    0.0000 </r>
       <r>    0.6119    0.0000 </r>
       <r>    0.7466    0.0000 </r>
       <r>    0.7476    0.0000 </r>
       <r>    0.7769    0.0000 </r>
       <r>    0.8054    0.0000 </r>
       <r>    0.8107    0.0000 </r>
       <r>    0.8285    0.0000 </r>
       <r>    0.8388    0.0000 </r>
       <r>    0.8600    0.0000 </r>
       <r>    0.8708    0.0000 </r>
       <r>    0.9811    0.0000 </r>
       <r>    1.0202    0.0000 </r>
       <r>    1.0616    0.0000 </r>
       <r>    1.1188    0.0000 </r>
       <r>    1.4953    0.0000 </r>
       <r>    1.6730    0.0000 </r>
       <r>    1.6967    0.0000 </r>
       <r>    1.7063    0.0000 </r>
       <r>    1.7237    0.0000 </r>
       <r>    1.7407    0.0000 </r>
       <r>    1.7443    0.0000 </r>
       <r>    1.8051    0.0000 </r>
       <r>    1.8079    0.0000 </r>
       <r>    1.8452    0.0000 </r>
       <r>    1.8504    0.0000 </r>
       <r>    1.8775    0.0000 </r>
       <r>    1.8805    0.0000 </r>
       <r>    1.9066    0.0000 </r>
       <r>    1.9069    0.0000 </r>
       <r>    1.9292    0.0000 </r>
       <r>    1.9820    0.0000 </r>
       <r>    2.0301    0.0000 </r>
       <r>    2.1012    0.0000 </r>
       <r>    2.1062    0.0000 </r>
       <r>    2.1286    0.0000 </r>
       <r>    2.1345    0.0000 </r>
       <r>    2.1351    0.0000 </r>
      </set>
     </set>
    </set>
   </array>
  </eigenvalues>
  <separator name="orbital magnetization" >
   <v name="MAGDIPOLOUT">      0.00000000      0.00000000      0.00000000</v>
  </separator>
  <dos>
   <i name="efermi">     -1.25683482 </i>
   <total>
    <array>
     <dimension dim="1">gridpoints</dimension>
     <dimension dim="2">spin</dimension>
     <field>energy</field>
     <field>total</field>
     <field>integrated</field>
     <set>
      <set comment="spin 1">
       <r>   -23.7748     0.0000     0.0000 </r>
       <r>   -23.6844     0.0000     0.0000 </r>
       <r>   -23.5939     0.0000     0.0000 </r>
       <r>   -23.5034     0.0000     0.0000 </r>
       <r>   -23.4129     0.0000     0.0000 </r>
       <r>   -23.3224     0.0000     0.0000 </r>
       <r>   -23.2320     0.0000     0.0000 </r>
       <r>   -23.1415     0.0000     0.0000 </r>
       <r>   -23.0510     0.0000     0.0000 </r>
       <r>   -22.9605     0.0000     0.0000 </r>
       <r>   -22.8701     0.0000     0.0000 </r>
       <r>   -22.7796     0.0000     0.0000 </r>
       <r>   -22.6891     0.0000     0.0000 </r>
       <r>   -22.5986     0.0000     0.0000 </r>
       <r>   -22.5081    22.1045     2.0000 </r>
       <r>   -22.4177     0.0000     2.0000 </r>
       <r>   -22.3272     0.0000     2.0000 </r>
       <r>   -22.2367     0.0000     2.0000 </r>
       <r>   -22.1462     0.0000     2.0000 </r>
       <r>   -22.0557     0.0000     2.0000 </r>
       <r>   -21.9653    22.1045     4.0000 </r>
       <r>   -21.8748     0.0000     4.0000 </r>
       <r>   -21.7843     1.6581     4.1500 </r>
       <r>   -21.6938    38.1133     9.4485 </r>
       <r>   -21.6033    43.6057    13.9454 </r>
       <r>   -21.5129     0.0000    14.0000 </r>
       <r>   -21.4224     0.0000    14.0000 </r>
       <r>   -21.3319     0.0000    14.0000 </r>
       <r>   -21.2414     4.8287    14.4369 </r>
       <r>   -21.1509     0.0000    16.0000 </r>
       <r>   -21.0605    19.0882    17.7271 </r>
       <r>   -20.9700    33.5374    21.0344 </r>
       <r>   -20.8795    29.7113    24.6883 </r>
       <r>   -20.7890     0.0000    26.0000 </r>
       <r>   -20.6986    37.3859    29.3826 </r>
       <r>   -20.6081    22.6647    32.0507 </r>
       <r>   -20.5176    43.6489    36.0000 </r>
       <r>   -20.4271    12.4793    37.1291 </r>
       <r>   -20.3366     0.0000    38.0000 </r>
       <r>   -20.2462     0.0000    38.0000 </r>
       <r>   -20.1557     0.0000    38.0000 </r>
       <r>   -20.0652     0.0000    38.0000 </r>
       <r>   -19.9747    19.3987    39.7552 </r>
       <r>   -19.8842    22.1045    42.0000 </r>
       <r>   -19.7938    20.7863    43.8807 </r>
       <r>   -19.7033    90.9343    52.2277 </r>
       <r>   -19.6128    66.0853    59.9793 </r>
       <r>   -19.5223     0.0004    60.0000 </r>
       <r>   -19.4318    22.1066    62.0002 </r>
       <r>   -19.3414    65.6449    67.9397 </r>
       <r>   -19.2509    22.4994    70.0357 </r>
       <r>   -19.1604    21.7097    72.0000 </r>
       <r>   -19.0699    22.1045    74.0000 </r>
       <r>   -18.9794    22.0758    75.9974 </r>
       <r>   -18.8890    22.8434    78.0669 </r>
       <r>   -18.7985    65.5751    84.0000 </r>
       <r>   -18.7080    85.0425    91.6946 </r>
       <r>   -18.6175    21.7683    94.0000 </r>
       <r>   -18.5271     0.0000    94.0000 </r>
       <r>   -18.4366    18.4557    95.6699 </r>
       <r>   -18.3461     0.0000    96.0000 </r>
       <r>   -18.2556     0.0000    96.0000 </r>
       <r>   -18.1651     0.0000    96.0000 </r>
       <r>   -18.0747     0.0000    96.0000 </r>
       <r>   -17.9842     0.0000    96.0000 </r>
       <r>   -17.8937     0.0000    96.0000 </r>
       <r>   -17.8032     0.0000    96.0000 </r>
       <r>   -17.7127     0.0000    96.0000 </r>
       <r>   -17.6223     0.0000    96.0000 </r>
       <r>   -17.5318     0.0000    96.0000 </r>
       <r>   -17.4413     0.0000    96.0000 </r>
       <r>   -17.3508     0.0000    96.0000 </r>
       <r>   -17.2603     0.0000    96.0000 </r>
       <r>   -17.1699     0.0000    96.0000 </r>
       <r>   -17.0794     0.0000    96.0000 </r>
       <r>   -16.9889     0.0000    96.0000 </r>
       <r>   -16.8984     0.0000    96.0000 </r>
       <r>   -16.8079     0.0000    96.0000 </r>
       <r>   -16.7175     0.0000    96.0000 </r>
       <r>   -16.6270     0.0000    96.0000 </r>
       <r>   -16.5365     0.0000    96.0000 </r>
       <r>   -16.4460     0.0000    96.0000 </r>
       <r>   -16.3555     0.0000    96.0000 </r>
       <r>   -16.2651     0.0000    96.0000 </r>
       <r>   -16.1746     0.0000    96.0000 </r>
       <r>   -16.0841     0.0000    96.0000 </r>
       <r>   -15.9936     0.0000    96.0000 </r>
       <r>   -15.9032     0.0000    96.0000 </r>
       <r>   -15.8127     0.0000    96.0000 </r>
       <r>   -15.7222     0.0000    96.0000 </r>
       <r>   -15.6317     0.0000    96.0000 </r>
       <r>   -15.5412     0.0000    96.0000 </r>
       <r>   -15.4508     0.0000    96.0000 </r>
       <r>   -15.3603     0.0000    96.0000 </r>
       <r>   -15.2698     0.0000    96.0000 </r>
       <r>   -15.1793     0.0000    96.0000 </r>
       <r>   -15.0888     0.0000    96.0000 </r>
       <r>   -14.9984     0.0000    96.0000 </r>
       <r>   -14.9079     0.0000    96.0000 </r>
       <r>   -14.8174     0.0000    96.0000 </r>
       <r>   -14.7269     0.0000    96.0000 </r>
       <r>   -14.6364     0.0000    96.0000 </r>
       <r>   -14.5460     0.0000    96.0000 </r>
       <r>   -14.4555     0.0000    96.0000 </r>
       <r>   -14.3650     0.0000    96.0000 </r>
       <r>   -14.2745     0.0000    96.0000 </r>
       <r>   -14.1840     0.0000    96.0000 </r>
       <r>   -14.0936    22.1045    98.0000 </r>
       <r>   -14.0031     0.0000    98.0000 </r>
       <r>   -13.9126     0.0000    98.0000 </r>
       <r>   -13.8221     0.0000    98.0000 </r>
       <r>   -13.7317     0.0000    98.0000 </r>
       <r>   -13.6412     0.0000    98.0000 </r>
       <r>   -13.5507     0.0000    98.0000 </r>
       <r>   -13.4602     0.0000    98.0000 </r>
       <r>   -13.3697     0.0000    98.0000 </r>
       <r>   -13.2793     0.0000    98.0000 </r>
       <r>   -13.1888     3.0225    98.2735 </r>
       <r>   -13.0983    60.8872   105.5090 </r>
       <r>   -13.0078    43.1804   109.9132 </r>
       <r>   -12.9173    66.2528   115.9945 </r>
       <r>   -12.8269     0.0071   116.0006 </r>
       <r>   -12.7364    44.2019   120.0000 </r>
       <r>   -12.6459     0.0000   120.0000 </r>
       <r>   -12.5554    22.1045   122.0000 </r>
       <r>   -12.4649    44.1696   125.9964 </r>
       <r>   -12.3745    14.6643   127.3268 </r>
       <r>   -12.2840    43.4505   131.9314 </r>
       <r>   -12.1935     0.3006   132.0272 </r>
       <r>   -12.1030    21.8039   134.0000 </r>
       <r>   -12.0125     0.0000   134.0000 </r>
       <r>   -11.9221     0.0683   134.0062 </r>
       <r>   -11.8316    44.1408   138.0000 </r>
       <r>   -11.7411    74.7951   144.7674 </r>
       <r>   -11.6506    39.6265   149.5854 </r>
       <r>   -11.5602    22.0481   152.0074 </r>
       <r>   -11.4697    22.0229   154.0000 </r>
       <r>   -11.3792    22.1045   156.0000 </r>
       <r>   -11.2887     0.0000   156.0000 </r>
       <r>   -11.1982    11.0674   157.0014 </r>
       <r>   -11.1078    21.8970   159.9812 </r>
       <r>   -11.0173    44.1946   164.0000 </r>
       <r>   -10.9268    22.5140   166.0370 </r>
       <r>   -10.8363    21.6951   168.0000 </r>
       <r>   -10.7458     0.0000   168.0000 </r>
       <r>   -10.6554    22.1045   170.0000 </r>
       <r>   -10.5649     0.0000   170.0000 </r>
       <r>   -10.4744     0.4917   170.0445 </r>
       <r>   -10.3839    43.7173   174.0000 </r>
       <r>   -10.2934    22.1045   176.0000 </r>
       <r>   -10.2030    39.8071   179.6017 </r>
       <r>   -10.1125     0.0000   180.0000 </r>
       <r>   -10.0220     0.0000   180.0000 </r>
       <r>    -9.9315     0.0000   180.0000 </r>
       <r>    -9.8410    22.1045   182.0000 </r>
       <r>    -9.7506    43.7136   185.9552 </r>
       <r>    -9.6601    44.0749   189.9881 </r>
       <r>    -9.5696    21.4197   191.9380 </r>
       <r>    -9.4791    44.4885   196.0253 </r>
       <r>    -9.3887    21.7583   198.0000 </r>
       <r>    -9.2982    46.4769   202.2052 </r>
       <r>    -9.2077   150.3132   217.6002 </r>
       <r>    -9.1172    74.5967   228.8408 </r>
       <r>    -9.0267    43.6312   235.9840 </r>
       <r>    -8.9363    22.1045   238.0000 </r>
       <r>    -8.8458    13.6485   239.2349 </r>
       <r>    -8.7553    22.1045   242.0000 </r>
       <r>    -8.6648     1.0849   242.0982 </r>
       <r>    -8.5743    21.0196   244.0000 </r>
       <r>    -8.4839    27.1748   246.4588 </r>
       <r>    -8.3934    22.1045   250.0000 </r>
       <r>    -8.3029    22.0979   251.9994 </r>
       <r>    -8.2124    22.0061   253.9911 </r>
       <r>    -8.1219    97.3089   263.0079 </r>
       <r>    -8.0315    19.6176   265.7750 </r>
       <r>    -7.9410    42.9053   269.8820 </r>
       <r>    -7.8505    36.2468   273.2796 </r>
       <r>    -7.7600    66.3274   282.0012 </r>
       <r>    -7.6695   107.5540   291.7326 </r>
       <r>    -7.5791    44.2090   298.0000 </r>
       <r>    -7.4886     0.0000   298.0000 </r>
       <r>    -7.3981    66.7353   304.0382 </r>
       <r>    -7.3076    43.7872   308.0000 </r>
       <r>    -7.2172    22.1045   310.0000 </r>
       <r>    -7.1267     0.0000   310.0000 </r>
       <r>    -7.0362     0.0000   310.0000 </r>
       <r>    -6.9457     0.0000   310.0000 </r>
       <r>    -6.8552     0.0213   310.0019 </r>
       <r>    -6.7648    28.6557   312.5947 </r>
       <r>    -6.6743     0.0000   314.0000 </r>
       <r>    -6.5838    44.1645   317.9960 </r>
       <r>    -6.4933    68.6772   324.2139 </r>
       <r>    -6.4028   123.4048   337.1656 </r>
       <r>    -6.3124    60.3990   343.4649 </r>
       <r>    -6.2219     0.0000   344.0000 </r>
       <r>    -6.1314     0.0432   344.0039 </r>
       <r>    -6.0409    22.0614   346.0000 </r>
       <r>    -5.9504    22.0402   347.9942 </r>
       <r>    -5.8600    77.8757   355.0463 </r>
       <r>    -5.7695    40.4845   359.6630 </r>
       <r>    -5.6790     0.0000   360.0000 </r>
       <r>    -5.5885     0.0000   360.0000 </r>
       <r>    -5.4980    22.1044   362.0000 </r>
       <r>    -5.4076     0.0000   362.0000 </r>
       <r>    -5.3171     0.0000   362.0000 </r>
       <r>    -5.2266     5.8792   362.5319 </r>
       <r>    -5.1361    67.7634   370.1312 </r>
       <r>    -5.0457    22.1045   374.0000 </r>
       <r>    -4.9552    22.9721   376.0785 </r>
       <r>    -4.8647    87.5505   384.0000 </r>
       <r>    -4.7742     0.0000   384.0000 </r>
       <r>    -4.6837    22.1045   386.0000 </r>
       <r>    -4.5933     0.0000   386.0000 </r>
       <r>    -4.5028     0.0000   386.0000 </r>
       <r>    -4.4123     0.0000   386.0000 </r>
       <r>    -4.3218     0.0000   386.0000 </r>
       <r>    -4.2313     0.0000   386.0000 </r>
       <r>    -4.1409     0.0000   386.0000 </r>
       <r>    -4.0504     0.0000   386.0000 </r>
       <r>    -3.9599     0.0000   386.0000 </r>
       <r>    -3.8694     0.0000   386.0000 </r>
       <r>    -3.7789     0.0000   386.0000 </r>
       <r>    -3.6885     0.0000   386.0000 </r>
       <r>    -3.5980     0.0000   386.0000 </r>
       <r>    -3.5075     0.0000   386.0000 </r>
       <r>    -3.4170     0.0000   386.0000 </r>
       <r>    -3.3265     0.0000   386.0000 </r>
       <r>    -3.2361     0.0000   386.0000 </r>
       <r>    -3.1456     0.0000   386.0000 </r>
       <r>    -3.0551     0.0000   386.0000 </r>
       <r>    -2.9646     0.0000   386.0000 </r>
       <r>    -2.8742     0.0000   386.0000 </r>
       <r>    -2.7837     0.0000   386.0000 </r>
       <r>    -2.6932     0.0000   386.0000 </r>
       <r>    -2.6027     0.0000   386.0000 </r>
       <r>    -2.5122     0.0000   386.0000 </r>
       <r>    -2.4218     0.0000   386.0000 </r>
       <r>    -2.3313     0.0000   386.0000 </r>
       <r>    -2.2408     0.0000   386.0000 </r>
       <r>    -2.1503     0.0000   386.0000 </r>
       <r>    -2.0598     0.0000   386.0000 </r>
       <r>    -1.9694     0.0000   386.0000 </r>
       <r>    -1.8789     0.0000   386.0000 </r>
       <r>    -1.7884     0.0000   386.0000 </r>
       <r>    -1.6979     0.0000   386.0000 </r>
       <r>    -1.6074     0.0000   386.0000 </r>
       <r>    -1.5170     0.0000   386.0000 </r>
       <r>    -1.4265     0.0000   386.0000 </r>
       <r>    -1.3360     0.0393   386.0036 </r>
       <r>    -1.2455    22.0652   388.0000 </r>
       <r>    -1.1550    22.1045   390.0000 </r>
       <r>    -1.0646     0.0000   390.0000 </r>
       <r>    -0.9741     0.0000   390.0000 </r>
       <r>    -0.8836     0.0000   390.0000 </r>
       <r>    -0.7931     0.0000   390.0000 </r>
       <r>    -0.7026     0.0000   390.0000 </r>
       <r>    -0.6122     0.0000   390.0000 </r>
       <r>    -0.5217     0.0000   390.0000 </r>
       <r>    -0.4312     0.0000   390.0000 </r>
       <r>    -0.3407     0.0000   390.0000 </r>
       <r>    -0.2503     0.0000   390.0000 </r>
       <r>    -0.1598     0.0000   390.0000 </r>
       <r>    -0.0693     0.0000   390.0000 </r>
       <r>     0.0212     0.0000   390.0000 </r>
       <r>     0.1117    22.1045   392.0000 </r>
       <r>     0.2021     7.8596   392.7111 </r>
       <r>     0.2926    69.0922   400.2514 </r>
       <r>     0.3831    41.2345   405.8018 </r>
       <r>     0.4736    48.9114   410.5113 </r>
       <r>     0.5641    22.1045   414.0000 </r>
       <r>     0.6545    22.1045   416.0000 </r>
       <r>     0.7450    17.0693   417.5444 </r>
       <r>     0.8355    91.9723   428.3216 </r>
       <r>     0.9260    44.2031   434.0000 </r>
       <r>     1.0165    28.7238   436.5989 </r>
       <r>     1.1069    23.1277   440.0926 </r>
       <r>     1.1974    21.0814   442.0000 </r>
       <r>     1.2879     0.0000   442.0000 </r>
       <r>     1.3784     0.0000   442.0000 </r>
       <r>     1.4689     0.0020   442.0002 </r>
       <r>     1.5593    22.1025   444.0000 </r>
       <r>     1.6498     0.0117   444.0011 </r>
       <r>     1.7403   104.9993   453.5013 </r>
       <r>     1.8308    44.7072   460.0451 </r>
       <r>     1.9212   134.1293   472.1825 </r>
       <r>     2.0117    22.2085   476.0094 </r>
       <r>     2.1022    40.6681   479.6890 </r>
       <r>     2.1927    66.3115   488.0000 </r>
       <r>     2.2832     0.0000   488.0000 </r>
       <r>     2.3736     0.0000   488.0000 </r>
       <r>     2.4641     0.0000   488.0000 </r>
       <r>     2.5546     0.0000   488.0000 </r>
       <r>     2.6451     0.0000   488.0000 </r>
       <r>     2.7356     0.0000   488.0000 </r>
       <r>     2.8260     0.0000   488.0000 </r>
       <r>     2.9165     0.0000   488.0000 </r>
       <r>     3.0070     0.0000   488.0000 </r>
       <r>     3.0975     0.0000   488.0000 </r>
       <r>     3.1880     0.0000   488.0000 </r>
       <r>     3.2784     0.0000   488.0000 </r>
       <r>     3.3689     0.0000   488.0000 </r>
      </set>
     </set>
    </array>
   </total>
  </dos>
 </calculation>
 <structure name="finalpos" >
  <crystal>
   <varray name="basis" >
    <v>      17.59966831       0.00000000       0.00000000 </v>
    <v>      -8.79983416      15.24175986       0.00000000 </v>
    <v>       0.00000000       0.00000000      19.92151445 </v>
   </varray>
   <i name="volume">   5343.94461817 </i>
   <varray name="rec_basis" >
    <v>       0.05681925       0.03280461       0.00000000 </v>
    <v>       0.00000000       0.06560922       0.00000000 </v>
    <v>       0.00000000       0.00000000       0.05019699 </v>
   </varray>
  </crystal>
  <varray name="positions" >
   <v>       0.99943010       0.00005992       0.50000000 </v>
   <v>       0.14164706       0.99871895       0.50000000 </v>
   <v>       0.28492260       0.99841663       0.50000000 </v>
   <v>       0.42850047       0.99871895       0.50000000 </v>
   <v>       0.57205839       0.00005992       0.50000000 </v>
   <v>       0.71530655       0.00214292       0.50000000 </v>
   <v>       0.85826494       0.00214292       0.50000000 </v>
   <v>       0.00080792       0.14408264       0.50000000 </v>
   <v>       0.14259355       0.14244783       0.50000000 </v>
   <v>       0.28470221       0.14112972       0.50000000 </v>
   <v>       0.42785608       0.14112972       0.50000000 </v>
   <v>       0.57128286       0.14244783       0.50000000 </v>
   <v>       0.71470329       0.14408264       0.50000000 </v>
   <v>       0.85805263       0.14467669       0.50000000 </v>
   <v>       0.00095476       0.28713011       0.50000000 </v>
   <v>       0.14372552       0.28645370       0.50000000 </v>
   <v>       0.28540977       0.28469374       0.50000000 </v>
   <v>       0.42724431       0.28306005       0.50000000 </v>
   <v>       0.57071254       0.28469374       0.50000000 </v>
   <v>       0.71415674       0.28645370       0.50000000 </v>
   <v>       0.85760392       0.28713011       0.50000000 </v>
   <v>       0.00054479       0.42966101       0.50000000 </v>
   <v>       0.14422690       0.42957551       0.50000000 </v>
   <v>       0.28730213       0.42918005       0.50000000 </v>
   <v>       0.42797654       0.42569726       0.50000000 </v>
   <v>       0.56914930       0.42569726       0.50000000 </v>
   <v>       0.71330650       0.42918005       0.50000000 </v>
   <v>       0.85677719       0.42957551       0.50000000 </v>
   <v>       0.99928255       0.57181462       0.50000000 </v>
   <v>       0.14396064       0.57181462       0.50000000 </v>
   <v>       0.28862787       0.57181625       0.50000000 </v>
   <v>       0.43313209       0.57215564       0.50000000 </v>
   <v>       0.71045212       0.57215564       0.50000000 </v>
   <v>       0.85461695       0.57181625       0.50000000 </v>
   <v>       0.99707234       0.71313699       0.50000000 </v>
   <v>       0.14255519       0.71368182       0.50000000 </v>
   <v>       0.28806142       0.71370518       0.50000000 </v>
   <v>       0.43464191       0.71382540       0.50000000 </v>
   <v>       0.58510826       0.71626937       0.50000000 </v>
   <v>       0.70258968       0.71626937       0.50000000 </v>
   <v>       0.85061206       0.71382540       0.50000000 </v>
   <v>       0.99777175       0.85613493       0.50000000 </v>
   <v>       0.14160898       0.85591288       0.50000000 </v>
   <v>       0.28573247       0.85591288       0.50000000 </v>
   <v>       0.42979175       0.85613493       0.50000000 </v>
   <v>       0.57342541       0.85758690       0.50000000 </v>
   <v>       0.71640633       0.86138410       0.50000000 </v>
   <v>       0.85559006       0.85758690       0.50000000 </v>
   <v>       0.04754270       0.09547788       0.50000000 </v>
   <v>       0.18957833       0.09405657       0.50000000 </v>
   <v>       0.33254182       0.09365506       0.50000000 </v>
   <v>       0.47590681       0.09405657       0.50000000 </v>
   <v>       0.61936376       0.09547788       0.50000000 </v>
   <v>       0.76280004       0.09719274       0.50000000 </v>
   <v>       0.90582126       0.09719274       0.50000000 </v>
   <v>       0.04854983       0.23934281       0.50000000 </v>
   <v>       0.19048138       0.23782962       0.50000000 </v>
   <v>       0.33234878       0.23634667       0.50000000 </v>
   <v>       0.47542646       0.23634667       0.50000000 </v>
   <v>       0.61877681       0.23782962       0.50000000 </v>
   <v>       0.76222155       0.23934281       0.50000000 </v>
   <v>       0.90562797       0.23982737       0.50000000 </v>
   <v>       0.04871288       0.38232824       0.50000000 </v>
   <v>       0.19188940       0.38184213       0.50000000 </v>
   <v>       0.33352206       0.38013969       0.50000000 </v>
   <v>       0.47472270       0.37801683       0.50000000 </v>
   <v>       0.61804620       0.38013969       0.50000000 </v>
   <v>       0.76138130       0.38184213       0.50000000 </v>
   <v>       0.90504393       0.38232824       0.50000000 </v>
   <v>       0.04810654       0.52478452       0.50000000 </v>
   <v>       0.19263929       0.52476864       0.50000000 </v>
   <v>       0.33696521       0.52455433       0.50000000 </v>
   <v>       0.47833704       0.52146721       0.50000000 </v>
   <v>       0.61455874       0.52146721       0.50000000 </v>
   <v>       0.75901769       0.52455433       0.50000000 </v>
   <v>       0.90355792       0.52476864       0.50000000 </v>
   <v>       0.04642473       0.66685228       0.50000000 </v>
   <v>       0.19185612       0.66685228       0.50000000 </v>
   <v>       0.33777931       0.66688794       0.50000000 </v>
   <v>       0.48615700       0.66710760       0.50000000 </v>
   <v>       0.75237918       0.66710760       0.50000000 </v>
   <v>       0.90053720       0.66688794       0.50000000 </v>
   <v>       0.04582562       0.80879365       0.50000000 </v>
   <v>       0.19009580       0.80876303       0.50000000 </v>
   <v>       0.33439660       0.80879365       0.50000000 </v>
   <v>       0.47844872       0.80897069       0.50000000 </v>
   <v>       0.62209487       0.81129474       0.50000000 </v>
   <v>       0.76062845       0.81129474       0.50000000 </v>
   <v>       0.90195054       0.80897069       0.50000000 </v>
   <v>       0.04629157       0.95154386       0.50000000 </v>
   <v>       0.18948291       0.95113037       0.50000000 </v>
   <v>       0.33307603       0.95113037       0.50000000 </v>
   <v>       0.47668087       0.95154386       0.50000000 </v>
   <v>       0.62015751       0.95313740       0.50000000 </v>
   <v>       0.76355772       0.95568687       0.50000000 </v>
   <v>       0.90440847       0.95313740       0.50000000 </v>
   <v>       0.56830873       0.56518888       0.50000000 </v>
  </varray>
 </structure>
</modeling>
