<?xml version="1.0" encoding="ISO-8859-1"?>
<modeling>
 <generator>
  <i name="program" type="string">vasp </i>
  <i name="version" type="string">5.4.4.18Apr17-6-g9f103f2a35  </i>
  <i name="subversion" type="string">(build Oct 18 2020 22:16:12) gamma-only         parallel </i>
  <i name="platform" type="string">UA-vaughan-2020a </i>
  <i name="date" type="string">2023 03 22 </i>
  <i name="time" type="string">00:05:39 </i>
 </generator>
 <incar>
  <i type="string" name="PREC">accurate</i>
  <i type="int" name="IALGO">    38</i>
  <i type="logical" name="ADDGRID"> T  </i>
  <i type="int" name="NELMIN">     5</i>
  <i type="int" name="IBRION">    -1</i>
  <i name="EDIFF">      0.00000001</i>
  <i name="EDIFFG">     -0.00000001</i>
  <i type="int" name="NSW">     0</i>
  <i type="int" name="ISIF">     2</i>
  <i name="ENCUT">    500.00000000</i>
  <i type="logical" name="LREAL"> F  </i>
  <i type="int" name="ISMEAR">     0</i>
  <i name="SIGMA">      0.01000000</i>
  <i type="logical" name="LWAVE"> F  </i>
  <i type="logical" name="LCHARG"> F  </i>
  <v type="int" name="KPOINT_BSE">    -1     0     0     0</v>
 </incar>
 <structure name="primitive_cell" >
  <crystal>
   <varray name="basis" >
    <v>      17.59966831       0.00000000       0.00000000 </v>
    <v>      -8.79983416      15.24175986       0.00000000 </v>
    <v>       0.00000000       0.00000000      19.92151445 </v>
   </varray>
   <i name="volume">   5343.94461817 </i>
   <varray name="rec_basis" >
    <v>       0.05681925       0.03280461       0.00000000 </v>
    <v>       0.00000000       0.06560922       0.00000000 </v>
    <v>       0.00000000       0.00000000       0.05019699 </v>
   </varray>
  </crystal>
  <varray name="positions" >
   <v>      -0.00056990       0.00005992      -0.50000000 </v>
   <v>      -0.09559153      -0.04686260      -0.50000000 </v>
   <v>       0.04629157      -0.04845614      -0.50000000 </v>
   <v>       0.04754270       0.09547788      -0.50000000 </v>
   <v>      -0.14173506       0.00214292      -0.50000000 </v>
   <v>       0.14259355       0.14244783      -0.50000000 </v>
   <v>       0.14164706      -0.00128105      -0.50000000 </v>
   <v>      -0.00222825      -0.14386507      -0.50000000 </v>
   <v>      -0.14440994      -0.14241310      -0.50000000 </v>
   <v>       0.00080792       0.14408264      -0.50000000 </v>
   <v>       0.18957833       0.09405657      -0.50000000 </v>
   <v>      -0.09417874       0.09719274      -0.50000000 </v>
   <v>      -0.09804946      -0.19102931      -0.50000000 </v>
   <v>      -0.23644228      -0.04431313      -0.50000000 </v>
   <v>      -0.23937155      -0.18870526      -0.50000000 </v>
   <v>       0.19048138       0.23782962      -0.50000000 </v>
   <v>       0.04582562      -0.19120635      -0.50000000 </v>
   <v>       0.18948291      -0.04886963      -0.50000000 </v>
   <v>       0.04854983       0.23934281      -0.50000000 </v>
   <v>      -0.28359367      -0.13861590      -0.50000000 </v>
   <v>       0.28470221       0.14112972      -0.50000000 </v>
   <v>      -0.14194737       0.14467669      -0.50000000 </v>
   <v>      -0.14938794      -0.28617460      -0.50000000 </v>
   <v>       0.14160898      -0.14408712      -0.50000000 </v>
   <v>       0.14372552       0.28645370      -0.50000000 </v>
   <v>      -0.28469345       0.00214292      -0.50000000 </v>
   <v>      -0.00292766      -0.28629482      -0.50000000 </v>
   <v>       0.28540977       0.28469374      -0.50000000 </v>
   <v>       0.00095476       0.28713011      -0.50000000 </v>
   <v>       0.28492260      -0.00158337      -0.50000000 </v>
   <v>      -0.29741032      -0.28373063      -0.50000000 </v>
   <v>      -0.09946280      -0.33311206      -0.50000000 </v>
   <v>       0.33234878       0.23634667      -0.50000000 </v>
   <v>      -0.23719996       0.09719274      -0.50000000 </v>
   <v>       0.33254182       0.09365506      -0.50000000 </v>
   <v>      -0.09437203       0.23982737      -0.50000000 </v>
   <v>      -0.24762082      -0.33289240      -0.50000000 </v>
   <v>      -0.37790513      -0.18870526      -0.50000000 </v>
   <v>       0.19188940       0.38184213      -0.50000000 </v>
   <v>       0.19009580      -0.19123697      -0.50000000 </v>
   <v>      -0.37984249      -0.04686260      -0.50000000 </v>
   <v>       0.04642473      -0.33314772      -0.50000000 </v>
   <v>       0.33352206       0.38013969      -0.50000000 </v>
   <v>       0.04871288       0.38232824      -0.50000000 </v>
   <v>       0.33307603      -0.04886963      -0.50000000 </v>
   <v>      -0.41489174      -0.28373063      -0.50000000 </v>
   <v>      -0.42657459      -0.14241310      -0.50000000 </v>
   <v>       0.42724431       0.28306005      -0.50000000 </v>
   <v>      -0.14538305      -0.42818375      -0.50000000 </v>
   <v>      -0.28529671       0.14408264      -0.50000000 </v>
   <v>      -0.28954788      -0.42784436      -0.50000000 </v>
   <v>       0.42785608       0.14112972      -0.50000000 </v>
   <v>      -0.14239608       0.28713011      -0.50000000 </v>
   <v>       0.14422690       0.42957551      -0.50000000 </v>
   <v>       0.28730213       0.42918005      -0.50000000 </v>
   <v>       0.14255519      -0.28631818      -0.50000000 </v>
   <v>       0.28573247      -0.14408712      -0.50000000 </v>
   <v>      -0.24098231      -0.47544567      -0.50000000 </v>
   <v>       0.47542646       0.23634667      -0.50000000 </v>
   <v>      -0.23777845       0.23934281      -0.50000000 </v>
   <v>       0.42797654       0.42569726      -0.50000000 </v>
   <v>      -0.42794161       0.00005992      -0.50000000 </v>
   <v>      -0.00071745      -0.42818538      -0.50000000 </v>
   <v>       0.00054479       0.42966101      -0.50000000 </v>
   <v>       0.42850047      -0.00128105      -0.50000000 </v>
   <v>      -0.43169127      -0.43481112      -0.50000000 </v>
   <v>       0.47472270       0.37801683      -0.50000000 </v>
   <v>      -0.09644208      -0.47523136      -0.50000000 </v>
   <v>      -0.38063624       0.09547788      -0.50000000 </v>
   <v>       0.47590681       0.09405657      -0.50000000 </v>
   <v>      -0.09495607       0.38232824      -0.50000000 </v>
   <v>      -0.38544126      -0.47853279      -0.50000000 </v>
   <v>       0.48615700      -0.33289240      -0.50000000 </v>
   <v>       0.47844872      -0.19102931      -0.50000000 </v>
   <v>       0.19263929      -0.47466316      -0.50000000 </v>
   <v>       0.33696521      -0.47544567      -0.50000000 </v>
   <v>       0.19185612      -0.33314772      -0.50000000 </v>
   <v>       0.33439660      -0.19120635      -0.50000000 </v>
   <v>       0.43464191      -0.28617460      -0.50000000 </v>
   <v>      -0.28669350       0.42918005      -0.50000000 </v>
   <v>      -0.42928746       0.28469374      -0.50000000 </v>
   <v>      -0.28584326       0.28645370      -0.50000000 </v>
   <v>       0.28862787      -0.42818375      -0.50000000 </v>
   <v>       0.28806142      -0.28629482      -0.50000000 </v>
   <v>       0.47668087      -0.04845614      -0.50000000 </v>
   <v>       0.47833704      -0.47853279      -0.50000000 </v>
   <v>       0.04810654      -0.47521548      -0.50000000 </v>
   <v>       0.43313209      -0.42784436      -0.50000000 </v>
   <v>       0.42979175      -0.14386507      -0.50000000 </v>
   <v>      -0.43085070       0.42569726      -0.50000000 </v>
   <v>      -0.14322281       0.42957551      -0.50000000 </v>
   <v>      -0.42871714       0.14244783      -0.50000000 </v>
   <v>       0.14396064      -0.42818538      -0.50000000 </v>
   <v>      -0.23861870       0.38184213      -0.50000000 </v>
   <v>      -0.38122319       0.23782962      -0.50000000 </v>
   <v>      -0.38195380       0.38013969      -0.50000000 </v>
   <v>       0.33777931      -0.33311206      -0.50000000 </v>
  </varray>
 </structure>
 <varray name="primitive_index" >
  <v type="int" >        1 </v>
  <v type="int" >       96 </v>
  <v type="int" >       90 </v>
  <v type="int" >       49 </v>
  <v type="int" >        7 </v>
  <v type="int" >        9 </v>
  <v type="int" >        2 </v>
  <v type="int" >       42 </v>
  <v type="int" >       48 </v>
  <v type="int" >        8 </v>
  <v type="int" >       50 </v>
  <v type="int" >       55 </v>
  <v type="int" >       89 </v>
  <v type="int" >       95 </v>
  <v type="int" >       88 </v>
  <v type="int" >       57 </v>
  <v type="int" >       83 </v>
  <v type="int" >       91 </v>
  <v type="int" >       56 </v>
  <v type="int" >       47 </v>
  <v type="int" >       10 </v>
  <v type="int" >       14 </v>
  <v type="int" >       41 </v>
  <v type="int" >       43 </v>
  <v type="int" >       16 </v>
  <v type="int" >        6 </v>
  <v type="int" >       35 </v>
  <v type="int" >       17 </v>
  <v type="int" >       15 </v>
  <v type="int" >        3 </v>
  <v type="int" >       40 </v>
  <v type="int" >       82 </v>
  <v type="int" >       58 </v>
  <v type="int" >       54 </v>
  <v type="int" >       51 </v>
  <v type="int" >       62 </v>
  <v type="int" >       81 </v>
  <v type="int" >       87 </v>
  <v type="int" >       64 </v>
  <v type="int" >       84 </v>
  <v type="int" >       94 </v>
  <v type="int" >       77 </v>
  <v type="int" >       65 </v>
  <v type="int" >       63 </v>
  <v type="int" >       92 </v>
  <v type="int" >       39 </v>
  <v type="int" >       46 </v>
  <v type="int" >       18 </v>
  <v type="int" >       34 </v>
  <v type="int" >       13 </v>
  <v type="int" >       33 </v>
  <v type="int" >       11 </v>
  <v type="int" >       21 </v>
  <v type="int" >       23 </v>
  <v type="int" >       24 </v>
  <v type="int" >       36 </v>
  <v type="int" >       44 </v>
  <v type="int" >       75 </v>
  <v type="int" >       59 </v>
  <v type="int" >       61 </v>
  <v type="int" >       25 </v>
  <v type="int" >        5 </v>
  <v type="int" >       29 </v>
  <v type="int" >       22 </v>
  <v type="int" >        4 </v>
  <v type="int" >       97 </v>
  <v type="int" >       66 </v>
  <v type="int" >       76 </v>
  <v type="int" >       53 </v>
  <v type="int" >       52 </v>
  <v type="int" >       69 </v>
  <v type="int" >       74 </v>
  <v type="int" >       80 </v>
  <v type="int" >       86 </v>
  <v type="int" >       71 </v>
  <v type="int" >       72 </v>
  <v type="int" >       78 </v>
  <v type="int" >       85 </v>
  <v type="int" >       38 </v>
  <v type="int" >       27 </v>
  <v type="int" >       19 </v>
  <v type="int" >       20 </v>
  <v type="int" >       31 </v>
  <v type="int" >       37 </v>
  <v type="int" >       93 </v>
  <v type="int" >       73 </v>
  <v type="int" >       70 </v>
  <v type="int" >       32 </v>
  <v type="int" >       45 </v>
  <v type="int" >       26 </v>
  <v type="int" >       28 </v>
  <v type="int" >       12 </v>
  <v type="int" >       30 </v>
  <v type="int" >       68 </v>
  <v type="int" >       60 </v>
  <v type="int" >       67 </v>
  <v type="int" >       79 </v>
 </varray>
 <kpoints>
  <generation param="Gamma">
   <v type="int" name="divisions">       1        1        1 </v>
   <v name="usershift">      0.00000000       0.00000000       0.00000000 </v>
   <v name="genvec1">      1.00000000      -0.00000000       0.00000000 </v>
   <v name="genvec2">      0.00000000       1.00000000       0.00000000 </v>
   <v name="genvec3">      0.00000000       0.00000000       1.00000000 </v>
   <v name="shift">      0.00000000       0.00000000       0.00000000 </v>
  </generation>
  <varray name="kpointlist" >
   <v>       0.00000000       0.00000000       0.00000000 </v>
  </varray>
  <varray name="weights" >
   <v>       1.00000000 </v>
  </varray>
 </kpoints>
 <parameters>
  <separator name="general" >
   <i type="string" name="SYSTEM">unknown system</i>
   <i type="logical" name="LCOMPAT"> F  </i>
  </separator>
  <separator name="electronic" >
   <i type="string" name="PREC">accura</i>
   <i name="ENMAX">    500.00000000</i>
   <i name="ENAUG">    644.87300000</i>
   <i name="EDIFF">      0.00000001</i>
   <i type="int" name="IALGO">    38</i>
   <i type="int" name="IWAVPR">    10</i>
   <i type="int" name="NBANDS">   244</i>
   <i name="NELECT">    388.00000000</i>
   <i type="int" name="TURBO">     0</i>
   <i type="int" name="IRESTART">     0</i>
   <i type="int" name="NREBOOT">     0</i>
   <i type="int" name="NMIN">     0</i>
   <i name="EREF">      0.00000000</i>
   <separator name="electronic smearing" >
    <i type="int" name="ISMEAR">     0</i>
    <i name="SIGMA">      0.01000000</i>
    <i name="KSPACING">      0.50000000</i>
    <i type="logical" name="KGAMMA"> T  </i>
   </separator>
   <separator name="electronic projectors" >
    <i type="logical" name="LREAL"> F  </i>
    <v name="ROPT">      0.00000000      0.00000000      0.00000000</v>
    <i type="int" name="LMAXPAW">  -100</i>
    <i type="int" name="LMAXMIX">     2</i>
    <i type="logical" name="NLSPLINE"> F  </i>
   </separator>
   <separator name="electronic startup" >
    <i type="int" name="ISTART">     0</i>
    <i type="int" name="ICHARG">     2</i>
    <i type="int" name="INIWAV">     1</i>
   </separator>
   <separator name="electronic spin" >
    <i type="int" name="ISPIN">     1</i>
    <i type="logical" name="LNONCOLLINEAR"> F  </i>
    <v name="MAGMOM">      1.00000000      1.00000000      1.00000000      1.00000000      1.00000000      1.00000000      1.00000000      1.00000000      1.00000000      1.00000000      1.00000000      1.00000000      1.00000000      1.00000000      1.00000000      1.00000000      1.00000000      1.00000000      1.00000000      1.00000000
      1.00000000      1.00000000      1.00000000      1.00000000      1.00000000      1.00000000      1.00000000      1.00000000      1.00000000      1.00000000      1.00000000      1.00000000      1.00000000      1.00000000      1.00000000      1.00000000      1.00000000      1.00000000      1.00000000      1.00000000
      1.00000000      1.00000000      1.00000000      1.00000000      1.00000000      1.00000000      1.00000000      1.00000000      1.00000000      1.00000000      1.00000000      1.00000000      1.00000000      1.00000000      1.00000000      1.00000000      1.00000000      1.00000000      1.00000000      1.00000000
      1.00000000      1.00000000      1.00000000      1.00000000      1.00000000      1.00000000      1.00000000      1.00000000      1.00000000      1.00000000      1.00000000      1.00000000      1.00000000      1.00000000      1.00000000      1.00000000      1.00000000      1.00000000      1.00000000      1.00000000
      1.00000000      1.00000000      1.00000000      1.00000000      1.00000000      1.00000000      1.00000000      1.00000000      1.00000000      1.00000000      1.00000000      1.00000000      1.00000000      1.00000000      1.00000000      1.00000000      1.00000000</v>
    <i name="NUPDOWN">     -1.00000000</i>
    <i type="logical" name="LSORBIT"> F  </i>
    <v name="SAXIS">      0.00000000      0.00000000      1.00000000</v>
    <i type="logical" name="LSPIRAL"> F  </i>
    <v name="QSPIRAL">      0.00000000      0.00000000      0.00000000</v>
    <i type="logical" name="LZEROZ"> F  </i>
   </separator>
   <separator name="electronic exchange-correlation" >
    <i type="logical" name="LASPH"> F  </i>
    <i type="logical" name="LMETAGGA"> F  </i>
   </separator>
   <separator name="electronic convergence" >
    <i type="int" name="NELM">    60</i>
    <i type="int" name="NELMDL">    -5</i>
    <i type="int" name="NELMIN">     5</i>
    <i name="ENINI">    500.00000000</i>
    <separator name="electronic convergence detail" >
     <i type="logical" name="LDIAG"> T  </i>
     <i type="logical" name="LSUBROT"> F  </i>
     <i name="WEIMIN">      0.00000000</i>
     <i name="EBREAK">      0.00000000</i>
     <i name="DEPER">      0.30000000</i>
     <i type="int" name="NRMM">     4</i>
     <i name="TIME">      0.40000000</i>
    </separator>
   </separator>
   <separator name="electronic mixer" >
    <i name="AMIX">      0.40000000</i>
    <i name="BMIX">      1.00000000</i>
    <i name="AMIN">      0.10000000</i>
    <i name="AMIX_MAG">      1.60000000</i>
    <i name="BMIX_MAG">      1.00000000</i>
    <separator name="electronic mixer details" >
     <i type="int" name="IMIX">     4</i>
     <i type="logical" name="MIXFIRST"> F  </i>
     <i type="int" name="MAXMIX">   -45</i>
     <i name="WC">    100.00000000</i>
     <i type="int" name="INIMIX">     1</i>
     <i type="int" name="MIXPRE">     1</i>
     <i type="int" name="MREMOVE">     5</i>
    </separator>
   </separator>
   <separator name="electronic dipolcorrection" >
    <i type="logical" name="LDIPOL"> F  </i>
    <i type="logical" name="LMONO"> F  </i>
    <i type="int" name="IDIPOL">     0</i>
    <i name="EPSILON">      1.00000000</i>
    <v name="DIPOL">   -100.00000000   -100.00000000   -100.00000000</v>
    <i name="EFIELD">      0.00000000</i>
   </separator>
  </separator>
  <separator name="grids" >
   <i type="int" name="NGX">   128</i>
   <i type="int" name="NGY">   128</i>
   <i type="int" name="NGZ">   150</i>
   <i type="int" name="NGXF">   256</i>
   <i type="int" name="NGYF">   256</i>
   <i type="int" name="NGZF">   300</i>
   <i type="logical" name="ADDGRID"> T  </i>
  </separator>
  <separator name="ionic" >
   <i type="int" name="NSW">     0</i>
   <i type="int" name="IBRION">    -1</i>
   <i type="int" name="MDALGO">     0</i>
   <i type="int" name="ISIF">     2</i>
   <i name="PSTRESS">      0.00000000</i>
   <i name="EDIFFG">     -0.00000001</i>
   <i type="int" name="NFREE">     0</i>
   <i name="POTIM">      0.50000000</i>
   <i name="SMASS">     -3.00000000</i>
   <i name="SCALEE">      1.00000000</i>
  </separator>
  <separator name="ionic md" >
   <i name="TEBEG">      0.00010000</i>
   <i name="TEEND">      0.00010000</i>
   <i type="int" name="NBLOCK">     1</i>
   <i type="int" name="KBLOCK">     1</i>
   <i type="int" name="NPACO">   256</i>
   <i name="APACO">     16.00000000</i>
  </separator>
  <separator name="symmetry" >
   <i type="int" name="ISYM">     2</i>
   <i name="SYMPREC">      0.00001000</i>
  </separator>
  <separator name="dos" >
   <i type="int" name="LORBIT">     0</i>
   <v name="RWIGS">     -1.00000000     -1.00000000     -1.00000000</v>
   <i type="int" name="NEDOS">   301</i>
   <i name="EMIN">     10.00000000</i>
   <i name="EMAX">    -10.00000000</i>
   <i name="EFERMI">      0.00000000</i>
  </separator>
  <separator name="writing" >
   <i type="int" name="NWRITE">     2</i>
   <i type="logical" name="LWAVE"> F  </i>
   <i type="logical" name="LDOWNSAMPLE"> F  </i>
   <i type="logical" name="LCHARG"> F  </i>
   <i type="logical" name="LPARD"> F  </i>
   <i type="logical" name="LVTOT"> F  </i>
   <i type="logical" name="LVHAR"> F  </i>
   <i type="logical" name="LELF"> F  </i>
   <i type="logical" name="LOPTICS"> F  </i>
   <v name="STM">      0.00000000      0.00000000      0.00000000      0.00000000      0.00000000      0.00000000      0.00000000</v>
  </separator>
  <separator name="performance" >
   <i type="int" name="NPAR">     4</i>
   <i type="int" name="NSIM">     4</i>
   <i type="int" name="NBLK">    -1</i>
   <i type="logical" name="LPLANE"> T  </i>
   <i type="logical" name="LSCALAPACK"> T  </i>
   <i type="logical" name="LSCAAWARE"> F  </i>
   <i type="logical" name="LSCALU"> F  </i>
   <i type="logical" name="LASYNC"> F  </i>
   <i type="logical" name="LORBITALREAL"> F  </i>
  </separator>
  <separator name="miscellaneous" >
   <i type="int" name="IDIOT">     3</i>
   <i type="int" name="ISPECIAL">     0</i>
   <i type="logical" name="LMUSIC"> F  </i>
   <v name="POMASS">     10.81100000     14.00100000     12.01100000</v>
   <v name="DARWINR">      0.00000000      0.00000000      0.00000000</v>
   <v name="DARWINV">      1.00000000      1.00000000      1.00000000</v>
   <i type="logical" name="LCORR"> T  </i>
  </separator>
  <i type="logical" name="GGA_COMPAT"> T  </i>
  <i type="logical" name="LBERRY"> F  </i>
  <i type="int" name="ICORELEVEL">     0</i>
  <i type="logical" name="LDAU"> F  </i>
  <i type="int" name="I_CONSTRAINED_M">     0</i>
  <separator name="electronic exchange-correlation" >
   <i type="string" name="GGA">--</i>
   <i type="int" name="VOSKOWN">     0</i>
   <i type="logical" name="LHFCALC"> F  </i>
   <i type="string" name="PRECFOCK"></i>
   <i type="logical" name="LSYMGRAD"> F  </i>
   <i type="logical" name="LHFONE"> F  </i>
   <i type="logical" name="LRHFCALC"> F  </i>
   <i type="logical" name="LTHOMAS"> F  </i>
   <i type="logical" name="LMODELHF"> F  </i>
   <i name="ENCUT4O">     -1.00000000</i>
   <i type="int" name="EXXOEP">     0</i>
   <i type="int" name="FOURORBIT">     0</i>
   <i name="AEXX">      0.00000000</i>
   <i name="HFALPHA">      0.00000000</i>
   <i name="MCALPHA">      0.00000000</i>
   <i name="ALDAX">      1.00000000</i>
   <i name="AGGAX">      1.00000000</i>
   <i name="ALDAC">      1.00000000</i>
   <i name="AGGAC">      1.00000000</i>
   <i type="int" name="NKREDX">     1</i>
   <i type="int" name="NKREDY">     1</i>
   <i type="int" name="NKREDZ">     1</i>
   <i type="logical" name="SHIFTRED"> F  </i>
   <i type="logical" name="ODDONLY"> F  </i>
   <i type="logical" name="EVENONLY"> F  </i>
   <i type="int" name="LMAXFOCK">     0</i>
   <i type="int" name="NMAXFOCKAE">     0</i>
   <i type="logical" name="LFOCKAEDFT"> F  </i>
   <i name="HFSCREEN">      0.00000000</i>
   <i name="HFSCREENC">      0.00000000</i>
   <i type="int" name="NBANDSGWLOW">     0</i>
  </separator>
  <separator name="vdW DFT" >
   <i type="logical" name="LUSE_VDW"> F  </i>
   <i name="Zab_VDW">     -0.84910000</i>
   <i name="PARAM1">      0.12340000</i>
   <i name="PARAM2">      1.00000000</i>
   <i name="PARAM3">      0.00000000</i>
  </separator>
  <separator name="model GW" >
   <i type="int" name="MODEL_GW">     0</i>
   <i name="MODEL_EPS0">     33.05532754</i>
   <i name="MODEL_ALPHA">      1.00000000</i>
  </separator>
  <separator name="linear response parameters" >
   <i type="logical" name="LEPSILON"> F  </i>
   <i type="logical" name="LRPA"> F  </i>
   <i type="logical" name="LNABLA"> F  </i>
   <i type="logical" name="LVEL"> F  </i>
   <i type="int" name="KINTER">     0</i>
   <i name="CSHIFT">      0.10000000</i>
   <i name="OMEGAMAX">     -1.00000000</i>
   <i name="DEG_THRESHOLD">      0.00200000</i>
   <i name="RTIME">     -0.10000000</i>
   <i name="WPLASMAI">      0.00000000</i>
   <v name="DFIELD">      0.00000000      0.00000000      0.00000000</v>
   <v name="WPLASMA">      0.00000000      0.00000000      0.00000000      0.00000000      0.00000000      0.00000000      0.00000000      0.00000000      0.00000000</v>
  </separator>
  <separator name="orbital magnetization" >
   <i type="logical" name="NUCIND"> F  </i>
   <v name="MAGPOS">      0.00000000      0.00000000      0.00000000</v>
   <i type="logical" name="LNICSALL"> T  </i>
   <i type="logical" name="ORBITALMAG"> F  </i>
   <i type="logical" name="LMAGBLOCH"> F  </i>
   <i type="logical" name="LCHIMAG"> F  </i>
   <i type="logical" name="LGAUGE"> T  </i>
   <i type="int" name="MAGATOM">     0</i>
   <v name="MAGDIPOL">      0.00000000      0.00000000      0.00000000</v>
   <v name="AVECCONST">      0.00000000      0.00000000      0.00000000</v>
  </separator>
  <separator name="response functions" >
   <i type="logical" name="LADDER"> F  </i>
   <i type="logical" name="LRPAFORCE"> F  </i>
   <i type="logical" name="LFXC"> F  </i>
   <i type="logical" name="LHARTREE"> T  </i>
   <i type="int" name="IBSE">     0</i>
   <v type="int" name="KPOINT">    -1     0     0     0</v>
   <i type="logical" name="LTCTE"> F  </i>
   <i type="logical" name="LTETE"> F  </i>
   <i type="logical" name="LTRIPLET"> F  </i>
   <i type="logical" name="LFXCEPS"> F  </i>
   <i type="logical" name="LFXHEG"> F  </i>
   <i type="int" name="NATURALO">     2</i>
   <i type="logical" name="L2ORDER"> F  </i>
   <i type="logical" name="LMP2LT"> F  </i>
   <i type="logical" name="LUSEW"> F  </i>
   <i name="ENCUTGW">     -2.00000000</i>
   <i name="ENCUTGWSOFT">     -2.00000000</i>
   <i name="ENCUTLF">     -1.00000000</i>
   <i type="int" name="LMAXMP2">    -1</i>
   <i name="SCISSOR">      0.00000000</i>
   <i type="int" name="NOMEGA">     0</i>
   <i type="int" name="NOMEGAR">     0</i>
   <i type="int" name="NBANDSGW">    -1</i>
   <i type="int" name="NBANDSO">    -1</i>
   <i type="int" name="NBANDSV">    -1</i>
   <i type="int" name="NELM">     1</i>
   <i type="int" name="NELMHF">     1</i>
   <i type="int" name="DIM">     3</i>
   <i type="int" name="ANTIRES">     0</i>
   <i name="OMEGAMAX">    -30.00000000</i>
   <i name="OMEGAMIN">    -30.00000000</i>
   <i name="OMEGATL">   -200.00000000</i>
   <i type="int" name="OMEGAGRID">   140</i>
   <i name="CSHIFT">     -0.10000000</i>
   <i type="logical" name="SELFENERGY"> F  </i>
   <i type="logical" name="LSPECTRAL"> F  </i>
   <i type="logical" name="LSPECTRALGW"> F  </i>
   <i type="logical" name="LSINGLES"> F  </i>
   <i type="logical" name="LFERMIGW"> F  </i>
   <i type="logical" name="ODDONLYGW"> F  </i>
   <i type="logical" name="EVENONLYGW"> F  </i>
   <i type="int" name="NKREDLFX">     1</i>
   <i type="int" name="NKREDLFY">     1</i>
   <i type="int" name="NKREDLFZ">     1</i>
   <i type="int" name="MAXMEM">  2800</i>
   <i type="int" name="TELESCOPE">     0</i>
   <i type="int" name="TAUPAR">     1</i>
   <i type="int" name="OMEGAPAR">    -1</i>
   <i name="LAMBDA">      1.00000000</i>
  </separator>
  <separator name="External order field" >
   <i name="OFIELD_KAPPA">      0.00000000</i>
   <v name="OFIELD_K">      0.00000000      0.00000000      0.00000000</v>
   <i name="OFIELD_Q6_NEAR">      0.00000000</i>
   <i name="OFIELD_Q6_FAR">      0.00000000</i>
   <i name="OFIELD_A">      0.00000000</i>
  </separator>
 </parameters>
 <atominfo>
  <atoms>      97 </atoms>
  <types>       3 </types>
  <array name="atoms" >
   <dimension dim="1">ion</dimension>
   <field type="string">element</field>
   <field type="int">atomtype</field>
   <set>
    <rc><c>B </c><c>   1</c></rc>
    <rc><c>B </c><c>   1</c></rc>
    <rc><c>B </c><c>   1</c></rc>
    <rc><c>B </c><c>   1</c></rc>
    <rc><c>B </c><c>   1</c></rc>
    <rc><c>B </c><c>   1</c></rc>
    <rc><c>B </c><c>   1</c></rc>
    <rc><c>B </c><c>   1</c></rc>
    <rc><c>B </c><c>   1</c></rc>
    <rc><c>B </c><c>   1</c></rc>
    <rc><c>B </c><c>   1</c></rc>
    <rc><c>B </c><c>   1</c></rc>
    <rc><c>B </c><c>   1</c></rc>
    <rc><c>B </c><c>   1</c></rc>
    <rc><c>B </c><c>   1</c></rc>
    <rc><c>B </c><c>   1</c></rc>
    <rc><c>B </c><c>   1</c></rc>
    <rc><c>B </c><c>   1</c></rc>
    <rc><c>B </c><c>   1</c></rc>
    <rc><c>B </c><c>   1</c></rc>
    <rc><c>B </c><c>   1</c></rc>
    <rc><c>B </c><c>   1</c></rc>
    <rc><c>B </c><c>   1</c></rc>
    <rc><c>B </c><c>   1</c></rc>
    <rc><c>B </c><c>   1</c></rc>
    <rc><c>B </c><c>   1</c></rc>
    <rc><c>B </c><c>   1</c></rc>
    <rc><c>B </c><c>   1</c></rc>
    <rc><c>B </c><c>   1</c></rc>
    <rc><c>B </c><c>   1</c></rc>
    <rc><c>B </c><c>   1</c></rc>
    <rc><c>B </c><c>   1</c></rc>
    <rc><c>B </c><c>   1</c></rc>
    <rc><c>B </c><c>   1</c></rc>
    <rc><c>B </c><c>   1</c></rc>
    <rc><c>B </c><c>   1</c></rc>
    <rc><c>B </c><c>   1</c></rc>
    <rc><c>B </c><c>   1</c></rc>
    <rc><c>B </c><c>   1</c></rc>
    <rc><c>B </c><c>   1</c></rc>
    <rc><c>B </c><c>   1</c></rc>
    <rc><c>B </c><c>   1</c></rc>
    <rc><c>B </c><c>   1</c></rc>
    <rc><c>B </c><c>   1</c></rc>
    <rc><c>B </c><c>   1</c></rc>
    <rc><c>B </c><c>   1</c></rc>
    <rc><c>B </c><c>   1</c></rc>
    <rc><c>B </c><c>   1</c></rc>
    <rc><c>N </c><c>   2</c></rc>
    <rc><c>N </c><c>   2</c></rc>
    <rc><c>N </c><c>   2</c></rc>
    <rc><c>N </c><c>   2</c></rc>
    <rc><c>N </c><c>   2</c></rc>
    <rc><c>N </c><c>   2</c></rc>
    <rc><c>N </c><c>   2</c></rc>
    <rc><c>N </c><c>   2</c></rc>
    <rc><c>N </c><c>   2</c></rc>
    <rc><c>N </c><c>   2</c></rc>
    <rc><c>N </c><c>   2</c></rc>
    <rc><c>N </c><c>   2</c></rc>
    <rc><c>N </c><c>   2</c></rc>
    <rc><c>N </c><c>   2</c></rc>
    <rc><c>N </c><c>   2</c></rc>
    <rc><c>N </c><c>   2</c></rc>
    <rc><c>N </c><c>   2</c></rc>
    <rc><c>N </c><c>   2</c></rc>
    <rc><c>N </c><c>   2</c></rc>
    <rc><c>N </c><c>   2</c></rc>
    <rc><c>N </c><c>   2</c></rc>
    <rc><c>N </c><c>   2</c></rc>
    <rc><c>N </c><c>   2</c></rc>
    <rc><c>N </c><c>   2</c></rc>
    <rc><c>N </c><c>   2</c></rc>
    <rc><c>N </c><c>   2</c></rc>
    <rc><c>N </c><c>   2</c></rc>
    <rc><c>N </c><c>   2</c></rc>
    <rc><c>N </c><c>   2</c></rc>
    <rc><c>N </c><c>   2</c></rc>
    <rc><c>N </c><c>   2</c></rc>
    <rc><c>N </c><c>   2</c></rc>
    <rc><c>N </c><c>   2</c></rc>
    <rc><c>N </c><c>   2</c></rc>
    <rc><c>N </c><c>   2</c></rc>
    <rc><c>N </c><c>   2</c></rc>
    <rc><c>N </c><c>   2</c></rc>
    <rc><c>N </c><c>   2</c></rc>
    <rc><c>N </c><c>   2</c></rc>
    <rc><c>N </c><c>   2</c></rc>
    <rc><c>N </c><c>   2</c></rc>
    <rc><c>N </c><c>   2</c></rc>
    <rc><c>N </c><c>   2</c></rc>
    <rc><c>N </c><c>   2</c></rc>
    <rc><c>N </c><c>   2</c></rc>
    <rc><c>N </c><c>   2</c></rc>
    <rc><c>N </c><c>   2</c></rc>
    <rc><c>N </c><c>   2</c></rc>
    <rc><c>C </c><c>   3</c></rc>
   </set>
  </array>
  <array name="atomtypes" >
   <dimension dim="1">type</dimension>
   <field type="int">atomspertype</field>
   <field type="string">element</field>
   <field>mass</field>
   <field>valence</field>
   <field type="string">pseudopotential</field>
   <set>
    <rc><c>  48</c><c>B </c><c>     10.81100000</c><c>      3.00000000</c><c>  PAW_PBE B 06Sep2000                   </c></rc>
    <rc><c>  48</c><c>N </c><c>     14.00100000</c><c>      5.00000000</c><c>  PAW_PBE N 08Apr2002                   </c></rc>
    <rc><c>   1</c><c>C </c><c>     12.01100000</c><c>      4.00000000</c><c>  PAW_PBE C 08Apr2002                   </c></rc>
   </set>
  </array>
 </atominfo>
 <structure name="initialpos" >
  <crystal>
   <varray name="basis" >
    <v>      17.59966831       0.00000000       0.00000000 </v>
    <v>      -8.79983416      15.24175986       0.00000000 </v>
    <v>       0.00000000       0.00000000      19.92151445 </v>
   </varray>
   <i name="volume">   5343.94461817 </i>
   <varray name="rec_basis" >
    <v>       0.05681925       0.03280461       0.00000000 </v>
    <v>       0.00000000       0.06560922       0.00000000 </v>
    <v>       0.00000000       0.00000000       0.05019699 </v>
   </varray>
  </crystal>
  <varray name="positions" >
   <v>       0.99943010       0.00005992       0.50000000 </v>
   <v>       0.14164706       0.99871895       0.50000000 </v>
   <v>       0.28492260       0.99841663       0.50000000 </v>
   <v>       0.42850047       0.99871895       0.50000000 </v>
   <v>       0.57205839       0.00005992       0.50000000 </v>
   <v>       0.71530655       0.00214292       0.50000000 </v>
   <v>       0.85826494       0.00214292       0.50000000 </v>
   <v>       0.00080792       0.14408264       0.50000000 </v>
   <v>       0.14259355       0.14244783       0.50000000 </v>
   <v>       0.28470221       0.14112972       0.50000000 </v>
   <v>       0.42785608       0.14112972       0.50000000 </v>
   <v>       0.57128286       0.14244783       0.50000000 </v>
   <v>       0.71470329       0.14408264       0.50000000 </v>
   <v>       0.85805263       0.14467669       0.50000000 </v>
   <v>       0.00095476       0.28713011       0.50000000 </v>
   <v>       0.14372552       0.28645370       0.50000000 </v>
   <v>       0.28540977       0.28469374       0.50000000 </v>
   <v>       0.42724431       0.28306005       0.50000000 </v>
   <v>       0.57071254       0.28469374       0.50000000 </v>
   <v>       0.71415674       0.28645370       0.50000000 </v>
   <v>       0.85760392       0.28713011       0.50000000 </v>
   <v>       0.00054479       0.42966101       0.50000000 </v>
   <v>       0.14422690       0.42957551       0.50000000 </v>
   <v>       0.28730213       0.42918005       0.50000000 </v>
   <v>       0.42797654       0.42569726       0.50000000 </v>
   <v>       0.56914930       0.42569726       0.50000000 </v>
   <v>       0.71330650       0.42918005       0.50000000 </v>
   <v>       0.85677719       0.42957551       0.50000000 </v>
   <v>       0.99928255       0.57181462       0.50000000 </v>
   <v>       0.14396064       0.57181462       0.50000000 </v>
   <v>       0.28862787       0.57181625       0.50000000 </v>
   <v>       0.43313209       0.57215564       0.50000000 </v>
   <v>       0.71045212       0.57215564       0.50000000 </v>
   <v>       0.85461695       0.57181625       0.50000000 </v>
   <v>       0.99707234       0.71370518       0.50000000 </v>
   <v>       0.14255519       0.71368182       0.50000000 </v>
   <v>       0.28806142       0.71370518       0.50000000 </v>
   <v>       0.43464191       0.71382540       0.50000000 </v>
   <v>       0.58510826       0.71626937       0.50000000 </v>
   <v>       0.70258968       0.71626937       0.50000000 </v>
   <v>       0.85061206       0.71382540       0.50000000 </v>
   <v>       0.99777175       0.85613493       0.50000000 </v>
   <v>       0.14160898       0.85591288       0.50000000 </v>
   <v>       0.28573247       0.85591288       0.50000000 </v>
   <v>       0.42979175       0.85613493       0.50000000 </v>
   <v>       0.57342541       0.85758690       0.50000000 </v>
   <v>       0.71640633       0.86138410       0.50000000 </v>
   <v>       0.85559006       0.85758690       0.50000000 </v>
   <v>       0.04754270       0.09547788       0.50000000 </v>
   <v>       0.18957833       0.09405657       0.50000000 </v>
   <v>       0.33254182       0.09365506       0.50000000 </v>
   <v>       0.47590681       0.09405657       0.50000000 </v>
   <v>       0.61936376       0.09547788       0.50000000 </v>
   <v>       0.76280004       0.09719274       0.50000000 </v>
   <v>       0.90582126       0.09719274       0.50000000 </v>
   <v>       0.04854983       0.23934281       0.50000000 </v>
   <v>       0.19048138       0.23782962       0.50000000 </v>
   <v>       0.33234878       0.23634667       0.50000000 </v>
   <v>       0.47542646       0.23634667       0.50000000 </v>
   <v>       0.61877681       0.23782962       0.50000000 </v>
   <v>       0.76222155       0.23934281       0.50000000 </v>
   <v>       0.90562797       0.23982737       0.50000000 </v>
   <v>       0.04871288       0.38232824       0.50000000 </v>
   <v>       0.19188940       0.38184213       0.50000000 </v>
   <v>       0.33352206       0.38013969       0.50000000 </v>
   <v>       0.47472270       0.37801683       0.50000000 </v>
   <v>       0.61804620       0.38013969       0.50000000 </v>
   <v>       0.76138130       0.38184213       0.50000000 </v>
   <v>       0.90504393       0.38232824       0.50000000 </v>
   <v>       0.04810654       0.52478452       0.50000000 </v>
   <v>       0.19263929       0.52533684       0.50000000 </v>
   <v>       0.33696521       0.52455433       0.50000000 </v>
   <v>       0.47833704       0.52146721       0.50000000 </v>
   <v>       0.61455874       0.52146721       0.50000000 </v>
   <v>       0.75901769       0.52455433       0.50000000 </v>
   <v>       0.90355792       0.52476864       0.50000000 </v>
   <v>       0.04642473       0.66685228       0.50000000 </v>
   <v>       0.19185612       0.66685228       0.50000000 </v>
   <v>       0.33777931       0.66688794       0.50000000 </v>
   <v>       0.48615700       0.66710760       0.50000000 </v>
   <v>       0.75237918       0.66710760       0.50000000 </v>
   <v>       0.90053720       0.66688794       0.50000000 </v>
   <v>       0.04582562       0.80879365       0.50000000 </v>
   <v>       0.19009580       0.80876303       0.50000000 </v>
   <v>       0.33439660       0.80879365       0.50000000 </v>
   <v>       0.47844872       0.80897069       0.50000000 </v>
   <v>       0.62209487       0.81129474       0.50000000 </v>
   <v>       0.76062845       0.81129474       0.50000000 </v>
   <v>       0.90195054       0.80897069       0.50000000 </v>
   <v>       0.04629157       0.95154386       0.50000000 </v>
   <v>       0.18948291       0.95113037       0.50000000 </v>
   <v>       0.33307603       0.95113037       0.50000000 </v>
   <v>       0.47668087       0.95154386       0.50000000 </v>
   <v>       0.62015751       0.95313740       0.50000000 </v>
   <v>       0.76355772       0.95568687       0.50000000 </v>
   <v>       0.90440847       0.95313740       0.50000000 </v>
   <v>       0.56830873       0.56518888       0.50000000 </v>
  </varray>
 </structure>
 <calculation>
  <scstep>
   <time name="dav">    2.38    2.40</time>
   <time name="total">    2.75    2.85</time>
   <energy>
    <i name="alphaZ">    156.50993408 </i>
    <i name="ewald">  58206.74812296 </i>
    <i name="hartreedc"> -70374.17958997 </i>
    <i name="XCdc">   1302.10853376 </i>
    <i name="pawpsdc">  12033.28670802 </i>
    <i name="pawaedc"> -12049.96799276 </i>
    <i name="eentropy">     -0.00000000 </i>
    <i name="bandstr">   -904.57799217 </i>
    <i name="atom">  16260.93880140 </i>
    <i name="e_fr_energy">   4630.86652532 </i>
    <i name="e_wo_entrp">   4630.86652532 </i>
    <i name="e_0_energy">   4630.86652532 </i>
   </energy>
  </scstep>
  <scstep>
   <time name="dav">    3.00    3.03</time>
   <time name="total">    3.00    3.03</time>
   <energy>
    <i name="e_fr_energy">    216.81106310 </i>
    <i name="e_wo_entrp">    216.81106310 </i>
    <i name="e_0_energy">    216.81106310 </i>
   </energy>
  </scstep>
  <scstep>
   <time name="dav">    2.49    2.51</time>
   <time name="total">    2.49    2.51</time>
   <energy>
    <i name="e_fr_energy">   -867.45961316 </i>
    <i name="e_wo_entrp">   -867.45961316 </i>
    <i name="e_0_energy">   -867.45961316 </i>
   </energy>
  </scstep>
  <scstep>
   <time name="dav">    2.47    2.51</time>
   <time name="total">    2.47    2.51</time>
   <energy>
    <i name="e_fr_energy">   -934.19548918 </i>
    <i name="e_wo_entrp">   -934.19548918 </i>
    <i name="e_0_energy">   -934.19548918 </i>
   </energy>
  </scstep>
  <scstep>
   <time name="dav">    2.51    2.54</time>
   <time name="total">    2.95    2.99</time>
   <energy>
    <i name="e_fr_energy">   -935.77437447 </i>
    <i name="e_wo_entrp">   -935.77437447 </i>
    <i name="e_0_energy">   -935.77437447 </i>
   </energy>
  </scstep>
  <scstep>
   <time name="dav">    2.33    2.35</time>
   <time name="total">    3.14    3.17</time>
   <energy>
    <i name="e_fr_energy">   -858.73389108 </i>
    <i name="e_wo_entrp">   -858.73389108 </i>
    <i name="e_0_energy">   -858.73389108 </i>
   </energy>
  </scstep>
  <scstep>
   <time name="dav">    2.36    2.37</time>
   <time name="total">    3.16    3.19</time>
   <energy>
    <i name="e_fr_energy">   -850.19299592 </i>
    <i name="e_wo_entrp">   -850.19299592 </i>
    <i name="e_0_energy">   -850.19299592 </i>
   </energy>
  </scstep>
  <scstep>
   <time name="dav">    2.29    2.32</time>
   <time name="total">    3.10    3.14</time>
   <energy>
    <i name="e_fr_energy">   -845.92522079 </i>
    <i name="e_wo_entrp">   -845.92521973 </i>
    <i name="e_0_energy">   -845.92522026 </i>
   </energy>
  </scstep>
  <scstep>
   <time name="dav">    2.30    2.32</time>
   <time name="total">    3.11    3.15</time>
   <energy>
    <i name="e_fr_energy">   -845.80031220 </i>
    <i name="e_wo_entrp">   -845.80031220 </i>
    <i name="e_0_energy">   -845.80031220 </i>
   </energy>
  </scstep>
  <scstep>
   <time name="dav">    2.74    2.76</time>
   <time name="total">    4.56    4.61</time>
   <energy>
    <i name="e_fr_energy">   -845.63872842 </i>
    <i name="e_wo_entrp">   -845.63872842 </i>
    <i name="e_0_energy">   -845.63872842 </i>
   </energy>
  </scstep>
  <scstep>
   <time name="dav">    2.24    2.26</time>
   <time name="total">    3.06    3.09</time>
   <energy>
    <i name="e_fr_energy">   -845.58633712 </i>
    <i name="e_wo_entrp">   -845.58633712 </i>
    <i name="e_0_energy">   -845.58633712 </i>
   </energy>
  </scstep>
  <scstep>
   <time name="dav">    2.26    2.28</time>
   <time name="total">    3.07    3.10</time>
   <energy>
    <i name="e_fr_energy">   -845.57358253 </i>
    <i name="e_wo_entrp">   -845.57358253 </i>
    <i name="e_0_energy">   -845.57358253 </i>
   </energy>
  </scstep>
  <scstep>
   <time name="dav">    2.23    2.25</time>
   <time name="total">    3.05    3.08</time>
   <energy>
    <i name="e_fr_energy">   -845.58406799 </i>
    <i name="e_wo_entrp">   -845.58406799 </i>
    <i name="e_0_energy">   -845.58406799 </i>
   </energy>
  </scstep>
  <scstep>
   <time name="dav">    2.27    2.29</time>
   <time name="total">    3.08    3.13</time>
   <energy>
    <i name="e_fr_energy">   -845.59373014 </i>
    <i name="e_wo_entrp">   -845.59373014 </i>
    <i name="e_0_energy">   -845.59373014 </i>
   </energy>
  </scstep>
  <scstep>
   <time name="dav">    2.18    2.20</time>
   <time name="total">    2.99    3.03</time>
   <energy>
    <i name="e_fr_energy">   -845.62495173 </i>
    <i name="e_wo_entrp">   -845.62495173 </i>
    <i name="e_0_energy">   -845.62495173 </i>
   </energy>
  </scstep>
  <scstep>
   <time name="dav">    2.21    2.22</time>
   <time name="total">    3.02    3.05</time>
   <energy>
    <i name="e_fr_energy">   -845.64136961 </i>
    <i name="e_wo_entrp">   -845.64136961 </i>
    <i name="e_0_energy">   -845.64136961 </i>
   </energy>
  </scstep>
  <scstep>
   <time name="dav">    2.26    2.27</time>
   <time name="total">    3.07    3.10</time>
   <energy>
    <i name="e_fr_energy">   -845.64770080 </i>
    <i name="e_wo_entrp">   -845.64770080 </i>
    <i name="e_0_energy">   -845.64770080 </i>
   </energy>
  </scstep>
  <scstep>
   <time name="dav">    2.18    2.20</time>
   <time name="total">    3.01    3.05</time>
   <energy>
    <i name="e_fr_energy">   -845.65085163 </i>
    <i name="e_wo_entrp">   -845.65085163 </i>
    <i name="e_0_energy">   -845.65085163 </i>
   </energy>
  </scstep>
  <scstep>
   <time name="dav">    2.31    2.33</time>
   <time name="total">    3.12    3.16</time>
   <energy>
    <i name="e_fr_energy">   -845.65187715 </i>
    <i name="e_wo_entrp">   -845.65187715 </i>
    <i name="e_0_energy">   -845.65187715 </i>
   </energy>
  </scstep>
  <scstep>
   <time name="dav">    2.23    2.25</time>
   <time name="total">    3.04    3.08</time>
   <energy>
    <i name="e_fr_energy">   -845.65229610 </i>
    <i name="e_wo_entrp">   -845.65229610 </i>
    <i name="e_0_energy">   -845.65229610 </i>
   </energy>
  </scstep>
  <scstep>
   <time name="dav">    2.25    2.27</time>
   <time name="total">    3.07    3.10</time>
   <energy>
    <i name="e_fr_energy">   -845.65249189 </i>
    <i name="e_wo_entrp">   -845.65249189 </i>
    <i name="e_0_energy">   -845.65249189 </i>
   </energy>
  </scstep>
  <scstep>
   <time name="dav">    2.18    2.20</time>
   <time name="total">    2.99    3.03</time>
   <energy>
    <i name="e_fr_energy">   -845.65260805 </i>
    <i name="e_wo_entrp">   -845.65260805 </i>
    <i name="e_0_energy">   -845.65260805 </i>
   </energy>
  </scstep>
  <scstep>
   <time name="dav">    2.25    2.27</time>
   <time name="total">    3.07    3.10</time>
   <energy>
    <i name="e_fr_energy">   -845.65268236 </i>
    <i name="e_wo_entrp">   -845.65268236 </i>
    <i name="e_0_energy">   -845.65268236 </i>
   </energy>
  </scstep>
  <scstep>
   <time name="dav">    2.29    2.32</time>
   <time name="total">    3.12    3.15</time>
   <energy>
    <i name="e_fr_energy">   -845.65272153 </i>
    <i name="e_wo_entrp">   -845.65272153 </i>
    <i name="e_0_energy">   -845.65272153 </i>
   </energy>
  </scstep>
  <scstep>
   <time name="dav">    2.25    2.27</time>
   <time name="total">    3.06    3.10</time>
   <energy>
    <i name="e_fr_energy">   -845.65273877 </i>
    <i name="e_wo_entrp">   -845.65273877 </i>
    <i name="e_0_energy">   -845.65273877 </i>
   </energy>
  </scstep>
  <scstep>
   <time name="dav">    2.21    2.22</time>
   <time name="total">    3.02    3.06</time>
   <energy>
    <i name="e_fr_energy">   -845.65275546 </i>
    <i name="e_wo_entrp">   -845.65275546 </i>
    <i name="e_0_energy">   -845.65275546 </i>
   </energy>
  </scstep>
  <scstep>
   <time name="dav">    2.56    2.71</time>
   <time name="total">    3.38    3.54</time>
   <energy>
    <i name="e_fr_energy">   -845.65275856 </i>
    <i name="e_wo_entrp">   -845.65275856 </i>
    <i name="e_0_energy">   -845.65275856 </i>
   </energy>
  </scstep>
  <scstep>
   <time name="dav">    1.94    1.95</time>
   <time name="total">    2.76    2.79</time>
   <energy>
    <i name="e_fr_energy">   -845.65275979 </i>
    <i name="e_wo_entrp">   -845.65275979 </i>
    <i name="e_0_energy">   -845.65275979 </i>
   </energy>
  </scstep>
  <scstep>
   <time name="dav">    1.79    1.81</time>
   <time name="total">    2.62    2.65</time>
   <energy>
    <i name="e_fr_energy">   -845.65276011 </i>
    <i name="e_wo_entrp">   -845.65276011 </i>
    <i name="e_0_energy">   -845.65276011 </i>
   </energy>
  </scstep>
  <scstep>
   <time name="dav">    1.68    1.69</time>
   <time name="total">    2.51    2.54</time>
   <energy>
    <i name="e_fr_energy">   -845.65276023 </i>
    <i name="e_wo_entrp">   -845.65276023 </i>
    <i name="e_0_energy">   -845.65276023 </i>
   </energy>
  </scstep>
  <scstep>
   <time name="dav">    1.68    1.69</time>
   <time name="total">    2.50    2.53</time>
   <energy>
    <i name="e_fr_energy">   -845.65276029 </i>
    <i name="e_wo_entrp">   -845.65276029 </i>
    <i name="e_0_energy">   -845.65276029 </i>
   </energy>
  </scstep>
  <scstep>
   <time name="dav">    1.72    1.73</time>
   <time name="total">    2.55    2.58</time>
   <energy>
    <i name="e_fr_energy">   -845.65276031 </i>
    <i name="e_wo_entrp">   -845.65276031 </i>
    <i name="e_0_energy">   -845.65276031 </i>
   </energy>
  </scstep>
  <scstep>
   <time name="dav">    1.82    1.84</time>
   <time name="total">    2.19    3.78</time>
   <energy>
    <i name="alphaZ">    156.50993408 </i>
    <i name="ewald">  58206.74812296 </i>
    <i name="hartreedc"> -72314.24962412 </i>
    <i name="XCdc">   1369.72334548 </i>
    <i name="pawpsdc">  44018.56348148 </i>
    <i name="pawaedc"> -44053.90524347 </i>
    <i name="eentropy">     -0.00000000 </i>
    <i name="bandstr">  -4489.98157813 </i>
    <i name="atom">  16260.93880140 </i>
    <i name="e_fr_energy">   -845.65276032 </i>
    <i name="e_wo_entrp">   -845.65276032 </i>
    <i name="e_0_energy">   -845.65276032 </i>
   </energy>
  </scstep>
  <structure>
   <crystal>
    <varray name="basis" >
     <v>      17.59966831       0.00000000       0.00000000 </v>
     <v>      -8.79983416      15.24175986       0.00000000 </v>
     <v>       0.00000000       0.00000000      19.92151445 </v>
    </varray>
    <i name="volume">   5343.94461817 </i>
    <varray name="rec_basis" >
     <v>       0.05681925       0.03280461       0.00000000 </v>
     <v>       0.00000000       0.06560922       0.00000000 </v>
     <v>       0.00000000       0.00000000       0.05019699 </v>
    </varray>
   </crystal>
   <varray name="positions" >
    <v>       0.99943010       0.00005992       0.50000000 </v>
    <v>       0.14164706       0.99871895       0.50000000 </v>
    <v>       0.28492260       0.99841663       0.50000000 </v>
    <v>       0.42850047       0.99871895       0.50000000 </v>
    <v>       0.57205839       0.00005992       0.50000000 </v>
    <v>       0.71530655       0.00214292       0.50000000 </v>
    <v>       0.85826494       0.00214292       0.50000000 </v>
    <v>       0.00080792       0.14408264       0.50000000 </v>
    <v>       0.14259355       0.14244783       0.50000000 </v>
    <v>       0.28470221       0.14112972       0.50000000 </v>
    <v>       0.42785608       0.14112972       0.50000000 </v>
    <v>       0.57128286       0.14244783       0.50000000 </v>
    <v>       0.71470329       0.14408264       0.50000000 </v>
    <v>       0.85805263       0.14467669       0.50000000 </v>
    <v>       0.00095476       0.28713011       0.50000000 </v>
    <v>       0.14372552       0.28645370       0.50000000 </v>
    <v>       0.28540977       0.28469374       0.50000000 </v>
    <v>       0.42724431       0.28306005       0.50000000 </v>
    <v>       0.57071254       0.28469374       0.50000000 </v>
    <v>       0.71415674       0.28645370       0.50000000 </v>
    <v>       0.85760392       0.28713011       0.50000000 </v>
    <v>       0.00054479       0.42966101       0.50000000 </v>
    <v>       0.14422690       0.42957551       0.50000000 </v>
    <v>       0.28730213       0.42918005       0.50000000 </v>
    <v>       0.42797654       0.42569726       0.50000000 </v>
    <v>       0.56914930       0.42569726       0.50000000 </v>
    <v>       0.71330650       0.42918005       0.50000000 </v>
    <v>       0.85677719       0.42957551       0.50000000 </v>
    <v>       0.99928255       0.57181462       0.50000000 </v>
    <v>       0.14396064       0.57181462       0.50000000 </v>
    <v>       0.28862787       0.57181625       0.50000000 </v>
    <v>       0.43313209       0.57215564       0.50000000 </v>
    <v>       0.71045212       0.57215564       0.50000000 </v>
    <v>       0.85461695       0.57181625       0.50000000 </v>
    <v>       0.99707234       0.71370518       0.50000000 </v>
    <v>       0.14255519       0.71368182       0.50000000 </v>
    <v>       0.28806142       0.71370518       0.50000000 </v>
    <v>       0.43464191       0.71382540       0.50000000 </v>
    <v>       0.58510826       0.71626937       0.50000000 </v>
    <v>       0.70258968       0.71626937       0.50000000 </v>
    <v>       0.85061206       0.71382540       0.50000000 </v>
    <v>       0.99777175       0.85613493       0.50000000 </v>
    <v>       0.14160898       0.85591288       0.50000000 </v>
    <v>       0.28573247       0.85591288       0.50000000 </v>
    <v>       0.42979175       0.85613493       0.50000000 </v>
    <v>       0.57342541       0.85758690       0.50000000 </v>
    <v>       0.71640633       0.86138410       0.50000000 </v>
    <v>       0.85559006       0.85758690       0.50000000 </v>
    <v>       0.04754270       0.09547788       0.50000000 </v>
    <v>       0.18957833       0.09405657       0.50000000 </v>
    <v>       0.33254182       0.09365506       0.50000000 </v>
    <v>       0.47590681       0.09405657       0.50000000 </v>
    <v>       0.61936376       0.09547788       0.50000000 </v>
    <v>       0.76280004       0.09719274       0.50000000 </v>
    <v>       0.90582126       0.09719274       0.50000000 </v>
    <v>       0.04854983       0.23934281       0.50000000 </v>
    <v>       0.19048138       0.23782962       0.50000000 </v>
    <v>       0.33234878       0.23634667       0.50000000 </v>
    <v>       0.47542646       0.23634667       0.50000000 </v>
    <v>       0.61877681       0.23782962       0.50000000 </v>
    <v>       0.76222155       0.23934281       0.50000000 </v>
    <v>       0.90562797       0.23982737       0.50000000 </v>
    <v>       0.04871288       0.38232824       0.50000000 </v>
    <v>       0.19188940       0.38184213       0.50000000 </v>
    <v>       0.33352206       0.38013969       0.50000000 </v>
    <v>       0.47472270       0.37801683       0.50000000 </v>
    <v>       0.61804620       0.38013969       0.50000000 </v>
    <v>       0.76138130       0.38184213       0.50000000 </v>
    <v>       0.90504393       0.38232824       0.50000000 </v>
    <v>       0.04810654       0.52478452       0.50000000 </v>
    <v>       0.19263929       0.52533684       0.50000000 </v>
    <v>       0.33696521       0.52455433       0.50000000 </v>
    <v>       0.47833704       0.52146721       0.50000000 </v>
    <v>       0.61455874       0.52146721       0.50000000 </v>
    <v>       0.75901769       0.52455433       0.50000000 </v>
    <v>       0.90355792       0.52476864       0.50000000 </v>
    <v>       0.04642473       0.66685228       0.50000000 </v>
    <v>       0.19185612       0.66685228       0.50000000 </v>
    <v>       0.33777931       0.66688794       0.50000000 </v>
    <v>       0.48615700       0.66710760       0.50000000 </v>
    <v>       0.75237918       0.66710760       0.50000000 </v>
    <v>       0.90053720       0.66688794       0.50000000 </v>
    <v>       0.04582562       0.80879365       0.50000000 </v>
    <v>       0.19009580       0.80876303       0.50000000 </v>
    <v>       0.33439660       0.80879365       0.50000000 </v>
    <v>       0.47844872       0.80897069       0.50000000 </v>
    <v>       0.62209487       0.81129474       0.50000000 </v>
    <v>       0.76062845       0.81129474       0.50000000 </v>
    <v>       0.90195054       0.80897069       0.50000000 </v>
    <v>       0.04629157       0.95154386       0.50000000 </v>
    <v>       0.18948291       0.95113037       0.50000000 </v>
    <v>       0.33307603       0.95113037       0.50000000 </v>
    <v>       0.47668087       0.95154386       0.50000000 </v>
    <v>       0.62015751       0.95313740       0.50000000 </v>
    <v>       0.76355772       0.95568687       0.50000000 </v>
    <v>       0.90440847       0.95313740       0.50000000 </v>
    <v>       0.56830873       0.56518888       0.50000000 </v>
   </varray>
  </structure>
  <varray name="forces" >
   <v>      -0.03887499      -0.02918799       0.00000000 </v>
   <v>      -0.02039655      -0.01219594       0.00000000 </v>
   <v>       0.00108834      -0.01526133       0.00000000 </v>
   <v>       0.02128560      -0.01159941       0.00000000 </v>
   <v>       0.03813938      -0.02765783       0.00000000 </v>
   <v>      -0.03479893      -0.05075381      -0.00000000 </v>
   <v>       0.03348206      -0.05171107       0.00000000 </v>
   <v>      -0.00619218      -0.03177626       0.00000000 </v>
   <v>      -0.02644229      -0.02961836       0.00000000 </v>
   <v>      -0.00622839      -0.03570577       0.00000000 </v>
   <v>       0.00837866      -0.03483915       0.00000000 </v>
   <v>       0.02665730      -0.02613372       0.00000000 </v>
   <v>       0.00477763      -0.02726155       0.00000000 </v>
   <v>      -0.00123035      -0.04308800       0.00000000 </v>
   <v>      -0.01064363      -0.03629116       0.00000000 </v>
   <v>       0.00141993      -0.05761159       0.00000000 </v>
   <v>      -0.02715972      -0.00498793       0.00000000 </v>
   <v>       0.00191511      -0.09443251      -0.00000000 </v>
   <v>       0.03125542      -0.00276076      -0.00000000 </v>
   <v>      -0.00581220      -0.04347408       0.00000000 </v>
   <v>       0.00565025      -0.02733624       0.00000000 </v>
   <v>      -0.01069394       0.02582315       0.00000000 </v>
   <v>      -0.06532382       0.18094104       0.00000000 </v>
   <v>       0.07060396      -0.13359139       0.00000000 </v>
   <v>      -0.10802399      -0.19837329       0.00000000 </v>
   <v>       0.11355988      -0.19998074       0.00000000 </v>
   <v>      -0.05641314      -0.13764753       0.00000000 </v>
   <v>       0.02524026       0.00241611       0.00000000 </v>
   <v>       0.02392301       0.02740051       0.00000000 </v>
   <v>      -0.15452824       0.15345126      -0.00000000 </v>
   <v>      -0.12847384       0.19776272       0.00000000 </v>
   <v>       0.05330267       0.40450811       0.00000000 </v>
   <v>      -0.04881401       0.39733884       0.00000000 </v>
   <v>       0.08766080       0.12850703       0.00000000 </v>
   <v>      -0.00416333       0.02023088       0.00000000 </v>
   <v>       0.01355213       0.02451378       0.00000000 </v>
   <v>      -0.00269921       0.01400329      -0.00000000 </v>
   <v>       0.07874400       0.04491188       0.00000000 </v>
   <v>       1.36438642       1.25110800      -0.00000000 </v>
   <v>      -1.36369667       1.25068967       0.00000000 </v>
   <v>      -0.08474821       0.04232310       0.00000000 </v>
   <v>      -0.04468144      -0.00978703       0.00000000 </v>
   <v>      -0.00947406      -0.00696979       0.00000000 </v>
   <v>       0.01295071      -0.00854468      -0.00000000 </v>
   <v>       0.04322834      -0.01038260      -0.00000000 </v>
   <v>       0.14847127       0.03540580       0.00000000 </v>
   <v>      -0.00025274      -0.25334903      -0.00000000 </v>
   <v>      -0.15024753       0.03479751      -0.00000000 </v>
   <v>       0.02609110       0.03537655       0.00000000 </v>
   <v>       0.00898398       0.02623000       0.00000000 </v>
   <v>      -0.00119056       0.02960997      -0.00000000 </v>
   <v>      -0.01080097       0.02500132       0.00000000 </v>
   <v>      -0.02572958       0.03314758       0.00000000 </v>
   <v>      -0.01111706       0.02818654       0.00000000 </v>
   <v>       0.01387993       0.02949878       0.00000000 </v>
   <v>       0.01873088       0.04170676       0.00000000 </v>
   <v>      -0.01195649       0.00962581       0.00000000 </v>
   <v>       0.01308086       0.03779744       0.00000000 </v>
   <v>      -0.01704575       0.03688913       0.00000000 </v>
   <v>       0.00836371       0.00381530      -0.00000000 </v>
   <v>      -0.01505248       0.03537032      -0.00000000 </v>
   <v>       0.00378364       0.03288630       0.00000000 </v>
   <v>       0.03479382       0.03591084      -0.00000000 </v>
   <v>       0.02726839       0.10227832       0.00000000 </v>
   <v>      -0.02836056      -0.19884783       0.00000000 </v>
   <v>      -0.00239462       0.11069814      -0.00000000 </v>
   <v>       0.02036719      -0.19987862      -0.00000000 </v>
   <v>      -0.04860603       0.05835854       0.00000000 </v>
   <v>      -0.00898178       0.02225167       0.00000000 </v>
   <v>      -0.01982695      -0.00638499       0.00000000 </v>
   <v>       0.29249198      -0.46642813       0.00000000 </v>
   <v>       0.16561771       0.09471949       0.00000000 </v>
   <v>       1.01966555      -1.56622433       0.00000000 </v>
   <v>      -1.02518834      -1.56357829       0.00000000 </v>
   <v>      -0.19205169       0.11186687      -0.00000000 </v>
   <v>      -0.02910734      -0.00952080       0.00000000 </v>
   <v>       0.00313675      -0.03217598      -0.00000000 </v>
   <v>      -0.03718766       0.00716638      -0.00000000 </v>
   <v>      -0.02990075      -0.05483468       0.00000000 </v>
   <v>      -0.26857436       0.00536588       0.00000000 </v>
   <v>       0.26925168       0.00886953      -0.00000000 </v>
   <v>       0.05616735      -0.06652890       0.00000000 </v>
   <v>       0.03376633      -0.01095241       0.00000000 </v>
   <v>      -0.00370836      -0.00501406       0.00000000 </v>
   <v>      -0.03390103      -0.00683250      -0.00000000 </v>
   <v>      -0.08132433      -0.01141512      -0.00000000 </v>
   <v>      -0.88508043       0.24342340      -0.00000000 </v>
   <v>       0.88613090       0.24427332      -0.00000000 </v>
   <v>       0.08397745      -0.01248010       0.00000000 </v>
   <v>       0.03051637       0.01926527       0.00000000 </v>
   <v>       0.00830187      -0.00067661       0.00000000 </v>
   <v>      -0.01028100      -0.00023718      -0.00000000 </v>
   <v>      -0.03062317       0.01944040      -0.00000000 </v>
   <v>      -0.10912278       0.12014984      -0.00000000 </v>
   <v>       0.00078227       0.01720951       0.00000000 </v>
   <v>       0.11046663       0.12074092      -0.00000000 </v>
   <v>       0.00183798      -0.11894170      -0.00000000 </v>
  </varray>
  <varray name="stress" >
   <v>     -10.57533609      -0.01682901       0.00000000 </v>
   <v>      -0.01682901       3.00456653       0.00000000 </v>
   <v>       0.00000000       0.00000000      -0.42556248 </v>
  </varray>
  <energy>
   <i name="e_fr_energy">   -845.65276032 </i>
   <i name="e_wo_entrp">   -845.65276032 </i>
   <i name="e_0_energy">     -0.00000000 </i>
  </energy>
  <time name="totalsc">  105.69  109.92</time>
  <eigenvalues>
   <array>
    <dimension dim="1">band</dimension>
    <dimension dim="2">kpoint</dimension>
    <dimension dim="3">spin</dimension>
    <field>eigene</field>
    <field>occ</field>
    <set>
     <set comment="spin 1">
      <set comment="kpoint 1">
       <r>  -22.5428    1.0000 </r>
       <r>  -22.0201    1.0000 </r>
       <r>  -21.7753    1.0000 </r>
       <r>  -21.7446    1.0000 </r>
       <r>  -21.6944    1.0000 </r>
       <r>  -21.6534    1.0000 </r>
       <r>  -21.6180    1.0000 </r>
       <r>  -21.2369    1.0000 </r>
       <r>  -21.0708    1.0000 </r>
       <r>  -21.0047    1.0000 </r>
       <r>  -20.9695    1.0000 </r>
       <r>  -20.9267    1.0000 </r>
       <r>  -20.8748    1.0000 </r>
       <r>  -20.7445    1.0000 </r>
       <r>  -20.7028    1.0000 </r>
       <r>  -20.6641    1.0000 </r>
       <r>  -20.5944    1.0000 </r>
       <r>  -20.5676    1.0000 </r>
       <r>  -20.4278    1.0000 </r>
       <r>  -19.9820    1.0000 </r>
       <r>  -19.9250    1.0000 </r>
       <r>  -19.8052    1.0000 </r>
       <r>  -19.7648    1.0000 </r>
       <r>  -19.7376    1.0000 </r>
       <r>  -19.7351    1.0000 </r>
       <r>  -19.7054    1.0000 </r>
       <r>  -19.6976    1.0000 </r>
       <r>  -19.6427    1.0000 </r>
       <r>  -19.6394    1.0000 </r>
       <r>  -19.6301    1.0000 </r>
       <r>  -19.4920    1.0000 </r>
       <r>  -19.4085    1.0000 </r>
       <r>  -19.3655    1.0000 </r>
       <r>  -19.3559    1.0000 </r>
       <r>  -19.2885    1.0000 </r>
       <r>  -19.2379    1.0000 </r>
       <r>  -19.1072    1.0000 </r>
       <r>  -19.0008    1.0000 </r>
       <r>  -18.9330    1.0000 </r>
       <r>  -18.8757    1.0000 </r>
       <r>  -18.8528    1.0000 </r>
       <r>  -18.8364    1.0000 </r>
       <r>  -18.7659    1.0000 </r>
       <r>  -18.7520    1.0000 </r>
       <r>  -18.7273    1.0000 </r>
       <r>  -18.7104    1.0000 </r>
       <r>  -18.6921    1.0000 </r>
       <r>  -18.4444    1.0000 </r>
       <r>  -14.1428    1.0000 </r>
       <r>  -13.1827    1.0000 </r>
       <r>  -13.1586    1.0000 </r>
       <r>  -13.1099    1.0000 </r>
       <r>  -13.1044    1.0000 </r>
       <r>  -13.0810    1.0000 </r>
       <r>  -13.0134    1.0000 </r>
       <r>  -12.9587    1.0000 </r>
       <r>  -12.9513    1.0000 </r>
       <r>  -12.9361    1.0000 </r>
       <r>  -12.8041    1.0000 </r>
       <r>  -12.7677    1.0000 </r>
       <r>  -12.6004    1.0000 </r>
       <r>  -12.5058    1.0000 </r>
       <r>  -12.4869    1.0000 </r>
       <r>  -12.3766    1.0000 </r>
       <r>  -12.3088    1.0000 </r>
       <r>  -12.2970    1.0000 </r>
       <r>  -12.1748    1.0000 </r>
       <r>  -11.9021    1.0000 </r>
       <r>  -11.8848    1.0000 </r>
       <r>  -11.7671    1.0000 </r>
       <r>  -11.7641    1.0000 </r>
       <r>  -11.7524    1.0000 </r>
       <r>  -11.7416    1.0000 </r>
       <r>  -11.6934    1.0000 </r>
       <r>  -11.6581    1.0000 </r>
       <r>  -11.6300    1.0000 </r>
       <r>  -11.5397    1.0000 </r>
       <r>  -11.4217    1.0000 </r>
       <r>  -11.2019    1.0000 </r>
       <r>  -11.1260    1.0000 </r>
       <r>  -11.0844    1.0000 </r>
       <r>  -11.0567    1.0000 </r>
       <r>  -10.9661    1.0000 </r>
       <r>  -10.9105    1.0000 </r>
       <r>  -10.6852    1.0000 </r>
       <r>  -10.4619    1.0000 </r>
       <r>  -10.4320    1.0000 </r>
       <r>  -10.3495    1.0000 </r>
       <r>  -10.2545    1.0000 </r>
       <r>  -10.2063    1.0000 </r>
       <r>   -9.8911    1.0000 </r>
       <r>   -9.7724    1.0000 </r>
       <r>   -9.7651    1.0000 </r>
       <r>   -9.7254    1.0000 </r>
       <r>   -9.6756    1.0000 </r>
       <r>   -9.5853    1.0000 </r>
       <r>   -9.5443    1.0000 </r>
       <r>   -9.4951    1.0000 </r>
       <r>   -9.4636    1.0000 </r>
       <r>   -9.3526    1.0000 </r>
       <r>   -9.3462    1.0000 </r>
       <r>   -9.2878    1.0000 </r>
       <r>   -9.2624    1.0000 </r>
       <r>   -9.2554    1.0000 </r>
       <r>   -9.2479    1.0000 </r>
       <r>   -9.2408    1.0000 </r>
       <r>   -9.2252    1.0000 </r>
       <r>   -9.2242    1.0000 </r>
       <r>   -9.2090    1.0000 </r>
       <r>   -9.2027    1.0000 </r>
       <r>   -9.1993    1.0000 </r>
       <r>   -9.1957    1.0000 </r>
       <r>   -9.1538    1.0000 </r>
       <r>   -9.1339    1.0000 </r>
       <r>   -9.1102    1.0000 </r>
       <r>   -9.1079    1.0000 </r>
       <r>   -9.0996    1.0000 </r>
       <r>   -9.0445    1.0000 </r>
       <r>   -8.9935    1.0000 </r>
       <r>   -8.8473    1.0000 </r>
       <r>   -8.7978    1.0000 </r>
       <r>   -8.6553    1.0000 </r>
       <r>   -8.5072    1.0000 </r>
       <r>   -8.4785    1.0000 </r>
       <r>   -8.4408    1.0000 </r>
       <r>   -8.3278    1.0000 </r>
       <r>   -8.2238    1.0000 </r>
       <r>   -8.2024    1.0000 </r>
       <r>   -8.1977    1.0000 </r>
       <r>   -8.1711    1.0000 </r>
       <r>   -8.1493    1.0000 </r>
       <r>   -8.1229    1.0000 </r>
       <r>   -8.0377    1.0000 </r>
       <r>   -7.9668    1.0000 </r>
       <r>   -7.9518    1.0000 </r>
       <r>   -7.8716    1.0000 </r>
       <r>   -7.8499    1.0000 </r>
       <r>   -7.8466    1.0000 </r>
       <r>   -7.8036    1.0000 </r>
       <r>   -7.8019    1.0000 </r>
       <r>   -7.7981    1.0000 </r>
       <r>   -7.7372    1.0000 </r>
       <r>   -7.7349    1.0000 </r>
       <r>   -7.7122    1.0000 </r>
       <r>   -7.6780    1.0000 </r>
       <r>   -7.6746    1.0000 </r>
       <r>   -7.6638    1.0000 </r>
       <r>   -7.6373    1.0000 </r>
       <r>   -7.6283    1.0000 </r>
       <r>   -7.4412    1.0000 </r>
       <r>   -7.4400    1.0000 </r>
       <r>   -7.4285    1.0000 </r>
       <r>   -7.3813    1.0000 </r>
       <r>   -7.3566    1.0000 </r>
       <r>   -7.2729    1.0000 </r>
       <r>   -6.8331    1.0000 </r>
       <r>   -6.7562    1.0000 </r>
       <r>   -6.6200    1.0000 </r>
       <r>   -6.6067    1.0000 </r>
       <r>   -6.5435    1.0000 </r>
       <r>   -6.5417    1.0000 </r>
       <r>   -6.5029    1.0000 </r>
       <r>   -6.4893    1.0000 </r>
       <r>   -6.4572    1.0000 </r>
       <r>   -6.4553    1.0000 </r>
       <r>   -6.4423    1.0000 </r>
       <r>   -6.4389    1.0000 </r>
       <r>   -6.4088    1.0000 </r>
       <r>   -6.4026    1.0000 </r>
       <r>   -6.3586    1.0000 </r>
       <r>   -6.3470    1.0000 </r>
       <r>   -6.3179    1.0000 </r>
       <r>   -6.1101    1.0000 </r>
       <r>   -5.9708    1.0000 </r>
       <r>   -5.9219    1.0000 </r>
       <r>   -5.8886    1.0000 </r>
       <r>   -5.8802    1.0000 </r>
       <r>   -5.8601    1.0000 </r>
       <r>   -5.7803    1.0000 </r>
       <r>   -5.7784    1.0000 </r>
       <r>   -5.5273    1.0000 </r>
       <r>   -5.2210    1.0000 </r>
       <r>   -5.1978    1.0000 </r>
       <r>   -5.1969    1.0000 </r>
       <r>   -5.1409    1.0000 </r>
       <r>   -5.1335    1.0000 </r>
       <r>   -5.1041    1.0000 </r>
       <r>   -4.9992    1.0000 </r>
       <r>   -4.9464    1.0000 </r>
       <r>   -4.9158    1.0000 </r>
       <r>   -4.9071    1.0000 </r>
       <r>   -4.8972    1.0000 </r>
       <r>   -4.7316    1.0000 </r>
       <r>   -1.3166    1.0000 </r>
       <r>   -1.2035    0.0000 </r>
       <r>    0.0588    0.0000 </r>
       <r>    0.2048    0.0000 </r>
       <r>    0.2377    0.0000 </r>
       <r>    0.2572    0.0000 </r>
       <r>    0.2613    0.0000 </r>
       <r>    0.3044    0.0000 </r>
       <r>    0.3065    0.0000 </r>
       <r>    0.3787    0.0000 </r>
       <r>    0.3952    0.0000 </r>
       <r>    0.4324    0.0000 </r>
       <r>    0.4803    0.0000 </r>
       <r>    0.5261    0.0000 </r>
       <r>    0.6096    0.0000 </r>
       <r>    0.7483    0.0000 </r>
       <r>    0.7521    0.0000 </r>
       <r>    0.7779    0.0000 </r>
       <r>    0.8051    0.0000 </r>
       <r>    0.8124    0.0000 </r>
       <r>    0.8238    0.0000 </r>
       <r>    0.8389    0.0000 </r>
       <r>    0.8591    0.0000 </r>
       <r>    0.8705    0.0000 </r>
       <r>    0.9801    0.0000 </r>
       <r>    1.0199    0.0000 </r>
       <r>    1.0598    0.0000 </r>
       <r>    1.1187    0.0000 </r>
       <r>    1.4953    0.0000 </r>
       <r>    1.6729    0.0000 </r>
       <r>    1.6963    0.0000 </r>
       <r>    1.7066    0.0000 </r>
       <r>    1.7239    0.0000 </r>
       <r>    1.7404    0.0000 </r>
       <r>    1.7440    0.0000 </r>
       <r>    1.8045    0.0000 </r>
       <r>    1.8070    0.0000 </r>
       <r>    1.8439    0.0000 </r>
       <r>    1.8473    0.0000 </r>
       <r>    1.8787    0.0000 </r>
       <r>    1.8839    0.0000 </r>
       <r>    1.9051    0.0000 </r>
       <r>    1.9099    0.0000 </r>
       <r>    1.9303    0.0000 </r>
       <r>    1.9842    0.0000 </r>
       <r>    2.0296    0.0000 </r>
       <r>    2.1032    0.0000 </r>
       <r>    2.1074    0.0000 </r>
       <r>    2.1283    0.0000 </r>
       <r>    2.1337    0.0000 </r>
       <r>    2.1403    0.0000 </r>
      </set>
     </set>
    </set>
   </array>
  </eigenvalues>
  <separator name="orbital magnetization" >
   <v name="MAGDIPOLOUT">      0.00000000      0.00000000      0.00000000</v>
  </separator>
  <dos>
   <i name="efermi">     -1.25256878 </i>
   <total>
    <array>
     <dimension dim="1">gridpoints</dimension>
     <dimension dim="2">spin</dimension>
     <field>energy</field>
     <field>total</field>
     <field>integrated</field>
     <set>
      <set comment="spin 1">
       <r>   -23.7770     0.0000     0.0000 </r>
       <r>   -23.6865     0.0000     0.0000 </r>
       <r>   -23.5960     0.0000     0.0000 </r>
       <r>   -23.5055     0.0000     0.0000 </r>
       <r>   -23.4149     0.0000     0.0000 </r>
       <r>   -23.3244     0.0000     0.0000 </r>
       <r>   -23.2339     0.0000     0.0000 </r>
       <r>   -23.1434     0.0000     0.0000 </r>
       <r>   -23.0529     0.0000     0.0000 </r>
       <r>   -22.9624     0.0000     0.0000 </r>
       <r>   -22.8719     0.0000     0.0000 </r>
       <r>   -22.7814     0.0000     0.0000 </r>
       <r>   -22.6909     0.0000     0.0000 </r>
       <r>   -22.6004     0.0000     0.0000 </r>
       <r>   -22.5099    22.0982     2.0000 </r>
       <r>   -22.4194     0.0000     2.0000 </r>
       <r>   -22.3289     0.0000     2.0000 </r>
       <r>   -22.2384     0.0000     2.0000 </r>
       <r>   -22.1479     0.0000     2.0000 </r>
       <r>   -22.0574     0.0000     2.0000 </r>
       <r>   -21.9669    22.0983     4.0000 </r>
       <r>   -21.8764     0.0000     4.0000 </r>
       <r>   -21.7859     1.5086     4.1365 </r>
       <r>   -21.6954    52.5377     8.8915 </r>
       <r>   -21.6049    43.5097    13.9378 </r>
       <r>   -21.5143     0.0000    14.0000 </r>
       <r>   -21.4238     0.0000    14.0000 </r>
       <r>   -21.3333     0.0000    14.0000 </r>
       <r>   -21.2428     4.4236    14.4004 </r>
       <r>   -21.1523     0.0000    16.0000 </r>
       <r>   -21.0618    19.8472    17.7963 </r>
       <r>   -20.9713    30.9614    20.8022 </r>
       <r>   -20.8808    26.4993    24.3983 </r>
       <r>   -20.7903     0.0000    26.0000 </r>
       <r>   -20.6998    36.7721    29.3281 </r>
       <r>   -20.6093    22.4848    32.0350 </r>
       <r>   -20.5188    43.8100    36.0000 </r>
       <r>   -20.4283    10.4110    36.9422 </r>
       <r>   -20.3378     0.0000    38.0000 </r>
       <r>   -20.2473     0.0000    38.0000 </r>
       <r>   -20.1568     0.0000    38.0000 </r>
       <r>   -20.0663     0.0000    38.0000 </r>
       <r>   -19.9758    17.9518    39.6247 </r>
       <r>   -19.8853    22.0983    42.0000 </r>
       <r>   -19.7948    20.5751    43.8621 </r>
       <r>   -19.7042    82.7061    51.4853 </r>
       <r>   -19.6137    66.0640    59.9791 </r>
       <r>   -19.5232     0.0001    60.0000 </r>
       <r>   -19.4327    22.1050    62.0006 </r>
       <r>   -19.3422    65.6952    67.9464 </r>
       <r>   -19.2517    22.6512    70.0500 </r>
       <r>   -19.1612    21.5453    72.0000 </r>
       <r>   -19.0707    22.0983    74.0000 </r>
       <r>   -18.9802    22.0586    75.9964 </r>
       <r>   -18.8897    22.6254    78.0477 </r>
       <r>   -18.7992    65.7676    84.0000 </r>
       <r>   -18.7087    79.5974    91.2040 </r>
       <r>   -18.6182    21.8899    94.0000 </r>
       <r>   -18.5277     0.0000    94.0000 </r>
       <r>   -18.4372    18.7104    95.6934 </r>
       <r>   -18.3467     0.0000    96.0000 </r>
       <r>   -18.2562     0.0000    96.0000 </r>
       <r>   -18.1657     0.0000    96.0000 </r>
       <r>   -18.0752     0.0000    96.0000 </r>
       <r>   -17.9847     0.0000    96.0000 </r>
       <r>   -17.8942     0.0000    96.0000 </r>
       <r>   -17.8036     0.0000    96.0000 </r>
       <r>   -17.7131     0.0000    96.0000 </r>
       <r>   -17.6226     0.0000    96.0000 </r>
       <r>   -17.5321     0.0000    96.0000 </r>
       <r>   -17.4416     0.0000    96.0000 </r>
       <r>   -17.3511     0.0000    96.0000 </r>
       <r>   -17.2606     0.0000    96.0000 </r>
       <r>   -17.1701     0.0000    96.0000 </r>
       <r>   -17.0796     0.0000    96.0000 </r>
       <r>   -16.9891     0.0000    96.0000 </r>
       <r>   -16.8986     0.0000    96.0000 </r>
       <r>   -16.8081     0.0000    96.0000 </r>
       <r>   -16.7176     0.0000    96.0000 </r>
       <r>   -16.6271     0.0000    96.0000 </r>
       <r>   -16.5366     0.0000    96.0000 </r>
       <r>   -16.4461     0.0000    96.0000 </r>
       <r>   -16.3556     0.0000    96.0000 </r>
       <r>   -16.2651     0.0000    96.0000 </r>
       <r>   -16.1746     0.0000    96.0000 </r>
       <r>   -16.0841     0.0000    96.0000 </r>
       <r>   -15.9935     0.0000    96.0000 </r>
       <r>   -15.9030     0.0000    96.0000 </r>
       <r>   -15.8125     0.0000    96.0000 </r>
       <r>   -15.7220     0.0000    96.0000 </r>
       <r>   -15.6315     0.0000    96.0000 </r>
       <r>   -15.5410     0.0000    96.0000 </r>
       <r>   -15.4505     0.0000    96.0000 </r>
       <r>   -15.3600     0.0000    96.0000 </r>
       <r>   -15.2695     0.0000    96.0000 </r>
       <r>   -15.1790     0.0000    96.0000 </r>
       <r>   -15.0885     0.0000    96.0000 </r>
       <r>   -14.9980     0.0000    96.0000 </r>
       <r>   -14.9075     0.0000    96.0000 </r>
       <r>   -14.8170     0.0000    96.0000 </r>
       <r>   -14.7265     0.0000    96.0000 </r>
       <r>   -14.6360     0.0000    96.0000 </r>
       <r>   -14.5455     0.0000    96.0000 </r>
       <r>   -14.4550     0.0000    96.0000 </r>
       <r>   -14.3645     0.0000    96.0000 </r>
       <r>   -14.2740     0.0000    96.0000 </r>
       <r>   -14.1835     0.0000    96.0000 </r>
       <r>   -14.0929    22.0983    98.0000 </r>
       <r>   -14.0024     0.0000    98.0000 </r>
       <r>   -13.9119     0.0000    98.0000 </r>
       <r>   -13.8214     0.0000    98.0000 </r>
       <r>   -13.7309     0.0000    98.0000 </r>
       <r>   -13.6404     0.0000    98.0000 </r>
       <r>   -13.5499     0.0000    98.0000 </r>
       <r>   -13.4594     0.0000    98.0000 </r>
       <r>   -13.3689     0.0000    98.0000 </r>
       <r>   -13.2784     0.0000    98.0000 </r>
       <r>   -13.1879     5.1012    98.4617 </r>
       <r>   -13.0974    62.1093   105.6212 </r>
       <r>   -13.0069    40.0287   109.6428 </r>
       <r>   -12.9164    66.2352   115.9946 </r>
       <r>   -12.8259     0.0233   116.0021 </r>
       <r>   -12.7354    44.1731   120.0000 </r>
       <r>   -12.6449     0.0000   120.0000 </r>
       <r>   -12.5544    22.0983   122.0000 </r>
       <r>   -12.4639    44.1839   125.9989 </r>
       <r>   -12.3734    14.9713   127.3550 </r>
       <r>   -12.2828    43.6900   131.9542 </r>
       <r>   -12.1923     0.1448   132.0131 </r>
       <r>   -12.1018    21.9534   134.0000 </r>
       <r>   -12.0113     0.0000   134.0000 </r>
       <r>   -11.9208     0.0898   134.0081 </r>
       <r>   -11.8303    44.1067   138.0000 </r>
       <r>   -11.7398    78.6797   145.1209 </r>
       <r>   -11.6493    41.8854   149.7908 </r>
       <r>   -11.5588    22.1062   152.0070 </r>
       <r>   -11.4683    22.0211   154.0000 </r>
       <r>   -11.3778    22.0983   156.0000 </r>
       <r>   -11.2873     0.0000   156.0000 </r>
       <r>   -11.1968    16.8925   157.5289 </r>
       <r>   -11.1063    22.0625   159.9968 </r>
       <r>   -11.0158    44.1747   164.0000 </r>
       <r>   -10.9253    22.5007   166.0364 </r>
       <r>   -10.8348    21.6958   168.0000 </r>
       <r>   -10.7443     0.0000   168.0000 </r>
       <r>   -10.6538    22.0982   170.0000 </r>
       <r>   -10.5633     0.0000   170.0000 </r>
       <r>   -10.4728     1.3671   170.1237 </r>
       <r>   -10.3822    42.8295   174.0000 </r>
       <r>   -10.2917    22.0982   176.0000 </r>
       <r>   -10.2012    38.9446   179.5247 </r>
       <r>   -10.1107     0.0000   180.0000 </r>
       <r>   -10.0202     0.0000   180.0000 </r>
       <r>    -9.9297     0.0000   180.0000 </r>
       <r>    -9.8392    22.0983   182.0000 </r>
       <r>    -9.7487    43.9740   185.9799 </r>
       <r>    -9.6582    44.0292   189.9858 </r>
       <r>    -9.5677    21.9693   191.9883 </r>
       <r>    -9.4772    44.6675   196.0436 </r>
       <r>    -9.3867    21.4934   198.0000 </r>
       <r>    -9.2962    46.7871   202.2345 </r>
       <r>    -9.2057   160.7278   218.5467 </r>
       <r>    -9.1152    53.1050   228.8063 </r>
       <r>    -9.0247    43.8354   235.9949 </r>
       <r>    -8.9342    22.0981   238.0000 </r>
       <r>    -8.8437    15.3683   239.3909 </r>
       <r>    -8.7532    22.0983   242.0000 </r>
       <r>    -8.6627     3.3030   242.2989 </r>
       <r>    -8.5721     0.0000   244.0000 </r>
       <r>    -8.4816    29.3700   246.6581 </r>
       <r>    -8.3911    22.0983   250.0000 </r>
       <r>    -8.3006    22.0969   251.9999 </r>
       <r>    -8.2101    25.4116   254.2999 </r>
       <r>    -8.1196    80.4307   263.3574 </r>
       <r>    -8.0291    19.6290   265.7765 </r>
       <r>    -7.9386    43.5028   269.9372 </r>
       <r>    -7.8481    44.5124   274.0286 </r>
       <r>    -7.7576    66.3528   282.0053 </r>
       <r>    -7.6671   113.0187   292.2340 </r>
       <r>    -7.5766    44.1962   298.0000 </r>
       <r>    -7.4861     0.0000   298.0000 </r>
       <r>    -7.3956    66.7779   304.0437 </r>
       <r>    -7.3051    43.7135   308.0000 </r>
       <r>    -7.2146    22.0982   310.0000 </r>
       <r>    -7.1241     0.0000   310.0000 </r>
       <r>    -7.0336     0.0000   310.0000 </r>
       <r>    -6.9431     0.0000   310.0000 </r>
       <r>    -6.8526     0.0647   310.0059 </r>
       <r>    -6.7621    26.5188   312.4059 </r>
       <r>    -6.6715     0.0000   314.0000 </r>
       <r>    -6.5810    44.1934   317.9997 </r>
       <r>    -6.4905    74.9822   324.7863 </r>
       <r>    -6.4000   122.2983   337.0686 </r>
       <r>    -6.3095    63.6557   343.7612 </r>
       <r>    -6.2190     0.0000   344.0000 </r>
       <r>    -6.1285     0.1034   344.0094 </r>
       <r>    -6.0380    21.9949   346.0000 </r>
       <r>    -5.9475    22.0904   347.9993 </r>
       <r>    -5.8570    81.0335   355.3342 </r>
       <r>    -5.7665    42.6062   359.8561 </r>
       <r>    -5.6760     0.0000   360.0000 </r>
       <r>    -5.5855     0.0000   360.0000 </r>
       <r>    -5.4950    22.0982   362.0000 </r>
       <r>    -5.4045     0.0000   362.0000 </r>
       <r>    -5.3140     0.0000   362.0000 </r>
       <r>    -5.2235     8.0533   362.7289 </r>
       <r>    -5.1330    75.0835   370.7959 </r>
       <r>    -5.0425    22.0978   374.0000 </r>
       <r>    -4.9520    26.8415   376.4293 </r>
       <r>    -4.8615    66.2948   384.0000 </r>
       <r>    -4.7709     0.0000   384.0000 </r>
       <r>    -4.6804    22.0983   386.0000 </r>
       <r>    -4.5899     0.0000   386.0000 </r>
       <r>    -4.4994     0.0000   386.0000 </r>
       <r>    -4.4089     0.0000   386.0000 </r>
       <r>    -4.3184     0.0000   386.0000 </r>
       <r>    -4.2279     0.0000   386.0000 </r>
       <r>    -4.1374     0.0000   386.0000 </r>
       <r>    -4.0469     0.0000   386.0000 </r>
       <r>    -3.9564     0.0000   386.0000 </r>
       <r>    -3.8659     0.0000   386.0000 </r>
       <r>    -3.7754     0.0000   386.0000 </r>
       <r>    -3.6849     0.0000   386.0000 </r>
       <r>    -3.5944     0.0000   386.0000 </r>
       <r>    -3.5039     0.0000   386.0000 </r>
       <r>    -3.4134     0.0000   386.0000 </r>
       <r>    -3.3229     0.0000   386.0000 </r>
       <r>    -3.2324     0.0000   386.0000 </r>
       <r>    -3.1419     0.0000   386.0000 </r>
       <r>    -3.0514     0.0000   386.0000 </r>
       <r>    -2.9608     0.0000   386.0000 </r>
       <r>    -2.8703     0.0000   386.0000 </r>
       <r>    -2.7798     0.0000   386.0000 </r>
       <r>    -2.6893     0.0000   386.0000 </r>
       <r>    -2.5988     0.0000   386.0000 </r>
       <r>    -2.5083     0.0000   386.0000 </r>
       <r>    -2.4178     0.0000   386.0000 </r>
       <r>    -2.3273     0.0000   386.0000 </r>
       <r>    -2.2368     0.0000   386.0000 </r>
       <r>    -2.1463     0.0000   386.0000 </r>
       <r>    -2.0558     0.0000   386.0000 </r>
       <r>    -1.9653     0.0000   386.0000 </r>
       <r>    -1.8748     0.0000   386.0000 </r>
       <r>    -1.7843     0.0000   386.0000 </r>
       <r>    -1.6938     0.0000   386.0000 </r>
       <r>    -1.6033     0.0000   386.0000 </r>
       <r>    -1.5128     0.0000   386.0000 </r>
       <r>    -1.4223     0.0000   386.0000 </r>
       <r>    -1.3318     0.3592   386.0325 </r>
       <r>    -1.2413    21.7391   388.0000 </r>
       <r>    -1.1508    22.0983   390.0000 </r>
       <r>    -1.0602     0.0000   390.0000 </r>
       <r>    -0.9697     0.0000   390.0000 </r>
       <r>    -0.8792     0.0000   390.0000 </r>
       <r>    -0.7887     0.0000   390.0000 </r>
       <r>    -0.6982     0.0000   390.0000 </r>
       <r>    -0.6077     0.0000   390.0000 </r>
       <r>    -0.5172     0.0000   390.0000 </r>
       <r>    -0.4267     0.0000   390.0000 </r>
       <r>    -0.3362     0.0000   390.0000 </r>
       <r>    -0.2457     0.0000   390.0000 </r>
       <r>    -0.1552     0.0000   390.0000 </r>
       <r>    -0.0647     0.0000   390.0000 </r>
       <r>     0.0258     0.0000   390.0000 </r>
       <r>     0.1163    22.0982   392.0000 </r>
       <r>     0.2068    13.4870   393.2206 </r>
       <r>     0.2973    71.9647   400.5132 </r>
       <r>     0.3878    23.2107   406.1007 </r>
       <r>     0.4783    30.7880   410.7865 </r>
       <r>     0.5688    22.0983   414.0000 </r>
       <r>     0.6593    22.0983   416.0000 </r>
       <r>     0.7499    21.2627   417.9244 </r>
       <r>     0.8404   101.1802   429.1574 </r>
       <r>     0.9309    44.1064   434.0000 </r>
       <r>     1.0214    35.0144   437.1690 </r>
       <r>     1.1119    25.8216   440.3370 </r>
       <r>     1.2024     0.0000   442.0000 </r>
       <r>     1.2929     0.0000   442.0000 </r>
       <r>     1.3834     0.0000   442.0000 </r>
       <r>     1.4739     0.0273   442.0025 </r>
       <r>     1.5644    22.0709   444.0000 </r>
       <r>     1.6549     0.1201   444.0109 </r>
       <r>     1.7454   117.7858   454.6711 </r>
       <r>     1.8359    48.2210   460.3642 </r>
       <r>     1.9264   115.5051   472.5601 </r>
       <r>     2.0169    22.8941   476.0720 </r>
       <r>     2.1074    48.4609   480.4580 </r>
       <r>     2.1979    66.2572   488.0000 </r>
       <r>     2.2884     0.0000   488.0000 </r>
       <r>     2.3789     0.0000   488.0000 </r>
       <r>     2.4694     0.0000   488.0000 </r>
       <r>     2.5599     0.0000   488.0000 </r>
       <r>     2.6505     0.0000   488.0000 </r>
       <r>     2.7410     0.0000   488.0000 </r>
       <r>     2.8315     0.0000   488.0000 </r>
       <r>     2.9220     0.0000   488.0000 </r>
       <r>     3.0125     0.0000   488.0000 </r>
       <r>     3.1030     0.0000   488.0000 </r>
       <r>     3.1935     0.0000   488.0000 </r>
       <r>     3.2840     0.0000   488.0000 </r>
       <r>     3.3745     0.0000   488.0000 </r>
      </set>
     </set>
    </array>
   </total>
  </dos>
 </calculation>
 <structure name="finalpos" >
  <crystal>
   <varray name="basis" >
    <v>      17.59966831       0.00000000       0.00000000 </v>
    <v>      -8.79983416      15.24175986       0.00000000 </v>
    <v>       0.00000000       0.00000000      19.92151445 </v>
   </varray>
   <i name="volume">   5343.94461817 </i>
   <varray name="rec_basis" >
    <v>       0.05681925       0.03280461       0.00000000 </v>
    <v>       0.00000000       0.06560922       0.00000000 </v>
    <v>       0.00000000       0.00000000       0.05019699 </v>
   </varray>
  </crystal>
  <varray name="positions" >
   <v>       0.99943010       0.00005992       0.50000000 </v>
   <v>       0.14164706       0.99871895       0.50000000 </v>
   <v>       0.28492260       0.99841663       0.50000000 </v>
   <v>       0.42850047       0.99871895       0.50000000 </v>
   <v>       0.57205839       0.00005992       0.50000000 </v>
   <v>       0.71530655       0.00214292       0.50000000 </v>
   <v>       0.85826494       0.00214292       0.50000000 </v>
   <v>       0.00080792       0.14408264       0.50000000 </v>
   <v>       0.14259355       0.14244783       0.50000000 </v>
   <v>       0.28470221       0.14112972       0.50000000 </v>
   <v>       0.42785608       0.14112972       0.50000000 </v>
   <v>       0.57128286       0.14244783       0.50000000 </v>
   <v>       0.71470329       0.14408264       0.50000000 </v>
   <v>       0.85805263       0.14467669       0.50000000 </v>
   <v>       0.00095476       0.28713011       0.50000000 </v>
   <v>       0.14372552       0.28645370       0.50000000 </v>
   <v>       0.28540977       0.28469374       0.50000000 </v>
   <v>       0.42724431       0.28306005       0.50000000 </v>
   <v>       0.57071254       0.28469374       0.50000000 </v>
   <v>       0.71415674       0.28645370       0.50000000 </v>
   <v>       0.85760392       0.28713011       0.50000000 </v>
   <v>       0.00054479       0.42966101       0.50000000 </v>
   <v>       0.14422690       0.42957551       0.50000000 </v>
   <v>       0.28730213       0.42918005       0.50000000 </v>
   <v>       0.42797654       0.42569726       0.50000000 </v>
   <v>       0.56914930       0.42569726       0.50000000 </v>
   <v>       0.71330650       0.42918005       0.50000000 </v>
   <v>       0.85677719       0.42957551       0.50000000 </v>
   <v>       0.99928255       0.57181462       0.50000000 </v>
   <v>       0.14396064       0.57181462       0.50000000 </v>
   <v>       0.28862787       0.57181625       0.50000000 </v>
   <v>       0.43313209       0.57215564       0.50000000 </v>
   <v>       0.71045212       0.57215564       0.50000000 </v>
   <v>       0.85461695       0.57181625       0.50000000 </v>
   <v>       0.99707234       0.71370518       0.50000000 </v>
   <v>       0.14255519       0.71368182       0.50000000 </v>
   <v>       0.28806142       0.71370518       0.50000000 </v>
   <v>       0.43464191       0.71382540       0.50000000 </v>
   <v>       0.58510826       0.71626937       0.50000000 </v>
   <v>       0.70258968       0.71626937       0.50000000 </v>
   <v>       0.85061206       0.71382540       0.50000000 </v>
   <v>       0.99777175       0.85613493       0.50000000 </v>
   <v>       0.14160898       0.85591288       0.50000000 </v>
   <v>       0.28573247       0.85591288       0.50000000 </v>
   <v>       0.42979175       0.85613493       0.50000000 </v>
   <v>       0.57342541       0.85758690       0.50000000 </v>
   <v>       0.71640633       0.86138410       0.50000000 </v>
   <v>       0.85559006       0.85758690       0.50000000 </v>
   <v>       0.04754270       0.09547788       0.50000000 </v>
   <v>       0.18957833       0.09405657       0.50000000 </v>
   <v>       0.33254182       0.09365506       0.50000000 </v>
   <v>       0.47590681       0.09405657       0.50000000 </v>
   <v>       0.61936376       0.09547788       0.50000000 </v>
   <v>       0.76280004       0.09719274       0.50000000 </v>
   <v>       0.90582126       0.09719274       0.50000000 </v>
   <v>       0.04854983       0.23934281       0.50000000 </v>
   <v>       0.19048138       0.23782962       0.50000000 </v>
   <v>       0.33234878       0.23634667       0.50000000 </v>
   <v>       0.47542646       0.23634667       0.50000000 </v>
   <v>       0.61877681       0.23782962       0.50000000 </v>
   <v>       0.76222155       0.23934281       0.50000000 </v>
   <v>       0.90562797       0.23982737       0.50000000 </v>
   <v>       0.04871288       0.38232824       0.50000000 </v>
   <v>       0.19188940       0.38184213       0.50000000 </v>
   <v>       0.33352206       0.38013969       0.50000000 </v>
   <v>       0.47472270       0.37801683       0.50000000 </v>
   <v>       0.61804620       0.38013969       0.50000000 </v>
   <v>       0.76138130       0.38184213       0.50000000 </v>
   <v>       0.90504393       0.38232824       0.50000000 </v>
   <v>       0.04810654       0.52478452       0.50000000 </v>
   <v>       0.19263929       0.52533684       0.50000000 </v>
   <v>       0.33696521       0.52455433       0.50000000 </v>
   <v>       0.47833704       0.52146721       0.50000000 </v>
   <v>       0.61455874       0.52146721       0.50000000 </v>
   <v>       0.75901769       0.52455433       0.50000000 </v>
   <v>       0.90355792       0.52476864       0.50000000 </v>
   <v>       0.04642473       0.66685228       0.50000000 </v>
   <v>       0.19185612       0.66685228       0.50000000 </v>
   <v>       0.33777931       0.66688794       0.50000000 </v>
   <v>       0.48615700       0.66710760       0.50000000 </v>
   <v>       0.75237918       0.66710760       0.50000000 </v>
   <v>       0.90053720       0.66688794       0.50000000 </v>
   <v>       0.04582562       0.80879365       0.50000000 </v>
   <v>       0.19009580       0.80876303       0.50000000 </v>
   <v>       0.33439660       0.80879365       0.50000000 </v>
   <v>       0.47844872       0.80897069       0.50000000 </v>
   <v>       0.62209487       0.81129474       0.50000000 </v>
   <v>       0.76062845       0.81129474       0.50000000 </v>
   <v>       0.90195054       0.80897069       0.50000000 </v>
   <v>       0.04629157       0.95154386       0.50000000 </v>
   <v>       0.18948291       0.95113037       0.50000000 </v>
   <v>       0.33307603       0.95113037       0.50000000 </v>
   <v>       0.47668087       0.95154386       0.50000000 </v>
   <v>       0.62015751       0.95313740       0.50000000 </v>
   <v>       0.76355772       0.95568687       0.50000000 </v>
   <v>       0.90440847       0.95313740       0.50000000 </v>
   <v>       0.56830873       0.56518888       0.50000000 </v>
  </varray>
 </structure>
</modeling>
