<?xml version="1.0" encoding="ISO-8859-1"?>
<modeling>
 <generator>
  <i name="program" type="string">vasp </i>
  <i name="version" type="string">5.4.4.18Apr17-6-g9f103f2a35  </i>
  <i name="subversion" type="string">(build Oct 18 2020 22:16:12) gamma-only         parallel </i>
  <i name="platform" type="string">UA-vaughan-2020a </i>
  <i name="date" type="string">2023 03 22 </i>
  <i name="time" type="string">00:48:27 </i>
 </generator>
 <incar>
  <i type="string" name="PREC">accurate</i>
  <i type="int" name="IALGO">    38</i>
  <i type="logical" name="ADDGRID"> T  </i>
  <i type="int" name="NELMIN">     5</i>
  <i type="int" name="IBRION">    -1</i>
  <i name="EDIFF">      0.00000001</i>
  <i name="EDIFFG">     -0.00000001</i>
  <i type="int" name="NSW">     0</i>
  <i type="int" name="ISIF">     2</i>
  <i name="ENCUT">    500.00000000</i>
  <i type="logical" name="LREAL"> F  </i>
  <i type="int" name="ISMEAR">     0</i>
  <i name="SIGMA">      0.01000000</i>
  <i type="logical" name="LWAVE"> F  </i>
  <i type="logical" name="LCHARG"> F  </i>
  <v type="int" name="KPOINT_BSE">    -1     0     0     0</v>
 </incar>
 <structure name="primitive_cell" >
  <crystal>
   <varray name="basis" >
    <v>      17.59966831       0.00000000       0.00000000 </v>
    <v>      -8.79983416      15.24175986       0.00000000 </v>
    <v>       0.00000000       0.00000000      19.92151445 </v>
   </varray>
   <i name="volume">   5343.94461817 </i>
   <varray name="rec_basis" >
    <v>       0.05681925       0.03280461       0.00000000 </v>
    <v>       0.00000000       0.06560922       0.00000000 </v>
    <v>       0.00000000       0.00000000       0.05019699 </v>
   </varray>
  </crystal>
  <varray name="positions" >
   <v>      -0.00056990       0.00005992      -0.50000000 </v>
   <v>      -0.09559153      -0.04686260      -0.50000000 </v>
   <v>       0.04629157      -0.04845614      -0.50000000 </v>
   <v>       0.04754270       0.09547788      -0.50000000 </v>
   <v>      -0.14173506       0.00214292      -0.50000000 </v>
   <v>       0.14259355       0.14244783      -0.50000000 </v>
   <v>       0.14164706      -0.00128105      -0.50000000 </v>
   <v>      -0.00222825      -0.14386507      -0.50000000 </v>
   <v>      -0.14440994      -0.14241310      -0.50000000 </v>
   <v>       0.00080792       0.14408264      -0.50000000 </v>
   <v>       0.18957833       0.09405657      -0.50000000 </v>
   <v>      -0.09417874       0.09719274      -0.50000000 </v>
   <v>      -0.09804946      -0.19102931      -0.50000000 </v>
   <v>      -0.23644228      -0.04431313      -0.50000000 </v>
   <v>      -0.23937155      -0.18870526      -0.50000000 </v>
   <v>       0.19048138       0.23782962      -0.50000000 </v>
   <v>       0.04582562      -0.19120635      -0.50000000 </v>
   <v>       0.18948291      -0.04886963      -0.50000000 </v>
   <v>       0.04854983       0.23934281      -0.50000000 </v>
   <v>      -0.28359367      -0.13861590      -0.50000000 </v>
   <v>       0.28470221       0.14112972      -0.50000000 </v>
   <v>      -0.14194737       0.14467669      -0.50000000 </v>
   <v>      -0.14938794      -0.28617460      -0.50000000 </v>
   <v>       0.14160898      -0.14408712      -0.50000000 </v>
   <v>       0.14372552       0.28645370      -0.50000000 </v>
   <v>      -0.28469345       0.00214292      -0.50000000 </v>
   <v>      -0.00292766      -0.28629482      -0.50000000 </v>
   <v>       0.28540977       0.28469374      -0.50000000 </v>
   <v>       0.00095476       0.28713011      -0.50000000 </v>
   <v>       0.28492260      -0.00158337      -0.50000000 </v>
   <v>      -0.29741032      -0.28373063      -0.50000000 </v>
   <v>      -0.09946280      -0.33311206      -0.50000000 </v>
   <v>       0.33234878       0.23634667      -0.50000000 </v>
   <v>      -0.23719996       0.09719274      -0.50000000 </v>
   <v>       0.33254182       0.09365506      -0.50000000 </v>
   <v>      -0.09437203       0.23982737      -0.50000000 </v>
   <v>      -0.24762082      -0.33289240      -0.50000000 </v>
   <v>      -0.37790513      -0.18870526      -0.50000000 </v>
   <v>       0.19188940       0.38184213      -0.50000000 </v>
   <v>       0.19009580      -0.19123697      -0.50000000 </v>
   <v>      -0.37984249      -0.04686260      -0.50000000 </v>
   <v>       0.04642473      -0.33314772      -0.50000000 </v>
   <v>       0.33352206       0.38013969      -0.50000000 </v>
   <v>       0.04871288       0.38232824      -0.50000000 </v>
   <v>       0.33307603      -0.04886963      -0.50000000 </v>
   <v>      -0.41489174      -0.28373063      -0.50000000 </v>
   <v>      -0.42657459      -0.14241310      -0.50000000 </v>
   <v>       0.42724431       0.28306005      -0.50000000 </v>
   <v>      -0.14538305      -0.42818375      -0.50000000 </v>
   <v>      -0.28529671       0.14408264      -0.50000000 </v>
   <v>      -0.28954788      -0.42784436      -0.50000000 </v>
   <v>       0.42785608       0.14112972      -0.50000000 </v>
   <v>      -0.14239608       0.28713011      -0.50000000 </v>
   <v>       0.14422690       0.42957551      -0.50000000 </v>
   <v>       0.28730213       0.42918005      -0.50000000 </v>
   <v>       0.14255519      -0.28631818      -0.50000000 </v>
   <v>       0.28573247      -0.14408712      -0.50000000 </v>
   <v>      -0.24098231      -0.47544567      -0.50000000 </v>
   <v>       0.47542646       0.23634667      -0.50000000 </v>
   <v>      -0.23777845       0.23934281      -0.50000000 </v>
   <v>       0.42797654       0.42569726      -0.50000000 </v>
   <v>      -0.42794161       0.00005992      -0.50000000 </v>
   <v>      -0.00071745      -0.42818538      -0.50000000 </v>
   <v>       0.00054479       0.42966101      -0.50000000 </v>
   <v>       0.42850047      -0.00128105      -0.50000000 </v>
   <v>      -0.43169127      -0.43481112      -0.50000000 </v>
   <v>       0.47472270       0.37801683      -0.50000000 </v>
   <v>      -0.09644208      -0.47523136      -0.50000000 </v>
   <v>      -0.38063624       0.09547788      -0.50000000 </v>
   <v>       0.47590681       0.09405657      -0.50000000 </v>
   <v>      -0.09495607       0.38232824      -0.50000000 </v>
   <v>      -0.38544126      -0.47853279      -0.50000000 </v>
   <v>       0.48615700      -0.33346059      -0.50000000 </v>
   <v>       0.47844872      -0.19102931      -0.50000000 </v>
   <v>       0.19263929      -0.47523136      -0.50000000 </v>
   <v>       0.33696521      -0.47544567      -0.50000000 </v>
   <v>       0.19185612      -0.33314772      -0.50000000 </v>
   <v>       0.33439660      -0.19120635      -0.50000000 </v>
   <v>       0.43464191      -0.28617460      -0.50000000 </v>
   <v>      -0.28669350       0.42918005      -0.50000000 </v>
   <v>      -0.42928746       0.28469374      -0.50000000 </v>
   <v>      -0.28584326       0.28645370      -0.50000000 </v>
   <v>       0.28862787      -0.42818375      -0.50000000 </v>
   <v>       0.28806142      -0.28629482      -0.50000000 </v>
   <v>       0.47668087      -0.04845614      -0.50000000 </v>
   <v>       0.47833704      -0.47853279      -0.50000000 </v>
   <v>       0.04810654      -0.47521548      -0.50000000 </v>
   <v>       0.43313209      -0.42784436      -0.50000000 </v>
   <v>       0.42979175      -0.14386507      -0.50000000 </v>
   <v>      -0.43085070       0.42569726      -0.50000000 </v>
   <v>      -0.14322281       0.42957551      -0.50000000 </v>
   <v>      -0.42871714       0.14244783      -0.50000000 </v>
   <v>       0.14396064      -0.42818538      -0.50000000 </v>
   <v>      -0.23861870       0.38184213      -0.50000000 </v>
   <v>      -0.38122319       0.23782962      -0.50000000 </v>
   <v>      -0.38195380       0.38013969      -0.50000000 </v>
   <v>       0.33777931      -0.33311206      -0.50000000 </v>
  </varray>
 </structure>
 <varray name="primitive_index" >
  <v type="int" >        1 </v>
  <v type="int" >       96 </v>
  <v type="int" >       90 </v>
  <v type="int" >       49 </v>
  <v type="int" >        7 </v>
  <v type="int" >        9 </v>
  <v type="int" >        2 </v>
  <v type="int" >       42 </v>
  <v type="int" >       48 </v>
  <v type="int" >        8 </v>
  <v type="int" >       50 </v>
  <v type="int" >       55 </v>
  <v type="int" >       89 </v>
  <v type="int" >       95 </v>
  <v type="int" >       88 </v>
  <v type="int" >       57 </v>
  <v type="int" >       83 </v>
  <v type="int" >       91 </v>
  <v type="int" >       56 </v>
  <v type="int" >       47 </v>
  <v type="int" >       10 </v>
  <v type="int" >       14 </v>
  <v type="int" >       41 </v>
  <v type="int" >       43 </v>
  <v type="int" >       16 </v>
  <v type="int" >        6 </v>
  <v type="int" >       35 </v>
  <v type="int" >       17 </v>
  <v type="int" >       15 </v>
  <v type="int" >        3 </v>
  <v type="int" >       40 </v>
  <v type="int" >       82 </v>
  <v type="int" >       58 </v>
  <v type="int" >       54 </v>
  <v type="int" >       51 </v>
  <v type="int" >       62 </v>
  <v type="int" >       81 </v>
  <v type="int" >       87 </v>
  <v type="int" >       64 </v>
  <v type="int" >       84 </v>
  <v type="int" >       94 </v>
  <v type="int" >       77 </v>
  <v type="int" >       65 </v>
  <v type="int" >       63 </v>
  <v type="int" >       92 </v>
  <v type="int" >       39 </v>
  <v type="int" >       46 </v>
  <v type="int" >       18 </v>
  <v type="int" >       34 </v>
  <v type="int" >       13 </v>
  <v type="int" >       33 </v>
  <v type="int" >       11 </v>
  <v type="int" >       21 </v>
  <v type="int" >       23 </v>
  <v type="int" >       24 </v>
  <v type="int" >       36 </v>
  <v type="int" >       44 </v>
  <v type="int" >       75 </v>
  <v type="int" >       59 </v>
  <v type="int" >       61 </v>
  <v type="int" >       25 </v>
  <v type="int" >        5 </v>
  <v type="int" >       29 </v>
  <v type="int" >       22 </v>
  <v type="int" >        4 </v>
  <v type="int" >       97 </v>
  <v type="int" >       66 </v>
  <v type="int" >       76 </v>
  <v type="int" >       53 </v>
  <v type="int" >       52 </v>
  <v type="int" >       69 </v>
  <v type="int" >       74 </v>
  <v type="int" >       80 </v>
  <v type="int" >       86 </v>
  <v type="int" >       71 </v>
  <v type="int" >       72 </v>
  <v type="int" >       78 </v>
  <v type="int" >       85 </v>
  <v type="int" >       38 </v>
  <v type="int" >       27 </v>
  <v type="int" >       19 </v>
  <v type="int" >       20 </v>
  <v type="int" >       31 </v>
  <v type="int" >       37 </v>
  <v type="int" >       93 </v>
  <v type="int" >       73 </v>
  <v type="int" >       70 </v>
  <v type="int" >       32 </v>
  <v type="int" >       45 </v>
  <v type="int" >       26 </v>
  <v type="int" >       28 </v>
  <v type="int" >       12 </v>
  <v type="int" >       30 </v>
  <v type="int" >       68 </v>
  <v type="int" >       60 </v>
  <v type="int" >       67 </v>
  <v type="int" >       79 </v>
 </varray>
 <kpoints>
  <generation param="Gamma">
   <v type="int" name="divisions">       1        1        1 </v>
   <v name="usershift">      0.00000000       0.00000000       0.00000000 </v>
   <v name="genvec1">      1.00000000      -0.00000000       0.00000000 </v>
   <v name="genvec2">      0.00000000       1.00000000       0.00000000 </v>
   <v name="genvec3">      0.00000000       0.00000000       1.00000000 </v>
   <v name="shift">      0.00000000       0.00000000       0.00000000 </v>
  </generation>
  <varray name="kpointlist" >
   <v>       0.00000000       0.00000000       0.00000000 </v>
  </varray>
  <varray name="weights" >
   <v>       1.00000000 </v>
  </varray>
 </kpoints>
 <parameters>
  <separator name="general" >
   <i type="string" name="SYSTEM">unknown system</i>
   <i type="logical" name="LCOMPAT"> F  </i>
  </separator>
  <separator name="electronic" >
   <i type="string" name="PREC">accura</i>
   <i name="ENMAX">    500.00000000</i>
   <i name="ENAUG">    644.87300000</i>
   <i name="EDIFF">      0.00000001</i>
   <i type="int" name="IALGO">    38</i>
   <i type="int" name="IWAVPR">    10</i>
   <i type="int" name="NBANDS">   244</i>
   <i name="NELECT">    388.00000000</i>
   <i type="int" name="TURBO">     0</i>
   <i type="int" name="IRESTART">     0</i>
   <i type="int" name="NREBOOT">     0</i>
   <i type="int" name="NMIN">     0</i>
   <i name="EREF">      0.00000000</i>
   <separator name="electronic smearing" >
    <i type="int" name="ISMEAR">     0</i>
    <i name="SIGMA">      0.01000000</i>
    <i name="KSPACING">      0.50000000</i>
    <i type="logical" name="KGAMMA"> T  </i>
   </separator>
   <separator name="electronic projectors" >
    <i type="logical" name="LREAL"> F  </i>
    <v name="ROPT">      0.00000000      0.00000000      0.00000000</v>
    <i type="int" name="LMAXPAW">  -100</i>
    <i type="int" name="LMAXMIX">     2</i>
    <i type="logical" name="NLSPLINE"> F  </i>
   </separator>
   <separator name="electronic startup" >
    <i type="int" name="ISTART">     0</i>
    <i type="int" name="ICHARG">     2</i>
    <i type="int" name="INIWAV">     1</i>
   </separator>
   <separator name="electronic spin" >
    <i type="int" name="ISPIN">     1</i>
    <i type="logical" name="LNONCOLLINEAR"> F  </i>
    <v name="MAGMOM">      1.00000000      1.00000000      1.00000000      1.00000000      1.00000000      1.00000000      1.00000000      1.00000000      1.00000000      1.00000000      1.00000000      1.00000000      1.00000000      1.00000000      1.00000000      1.00000000      1.00000000      1.00000000      1.00000000      1.00000000
      1.00000000      1.00000000      1.00000000      1.00000000      1.00000000      1.00000000      1.00000000      1.00000000      1.00000000      1.00000000      1.00000000      1.00000000      1.00000000      1.00000000      1.00000000      1.00000000      1.00000000      1.00000000      1.00000000      1.00000000
      1.00000000      1.00000000      1.00000000      1.00000000      1.00000000      1.00000000      1.00000000      1.00000000      1.00000000      1.00000000      1.00000000      1.00000000      1.00000000      1.00000000      1.00000000      1.00000000      1.00000000      1.00000000      1.00000000      1.00000000
      1.00000000      1.00000000      1.00000000      1.00000000      1.00000000      1.00000000      1.00000000      1.00000000      1.00000000      1.00000000      1.00000000      1.00000000      1.00000000      1.00000000      1.00000000      1.00000000      1.00000000      1.00000000      1.00000000      1.00000000
      1.00000000      1.00000000      1.00000000      1.00000000      1.00000000      1.00000000      1.00000000      1.00000000      1.00000000      1.00000000      1.00000000      1.00000000      1.00000000      1.00000000      1.00000000      1.00000000      1.00000000</v>
    <i name="NUPDOWN">     -1.00000000</i>
    <i type="logical" name="LSORBIT"> F  </i>
    <v name="SAXIS">      0.00000000      0.00000000      1.00000000</v>
    <i type="logical" name="LSPIRAL"> F  </i>
    <v name="QSPIRAL">      0.00000000      0.00000000      0.00000000</v>
    <i type="logical" name="LZEROZ"> F  </i>
   </separator>
   <separator name="electronic exchange-correlation" >
    <i type="logical" name="LASPH"> F  </i>
    <i type="logical" name="LMETAGGA"> F  </i>
   </separator>
   <separator name="electronic convergence" >
    <i type="int" name="NELM">    60</i>
    <i type="int" name="NELMDL">    -5</i>
    <i type="int" name="NELMIN">     5</i>
    <i name="ENINI">    500.00000000</i>
    <separator name="electronic convergence detail" >
     <i type="logical" name="LDIAG"> T  </i>
     <i type="logical" name="LSUBROT"> F  </i>
     <i name="WEIMIN">      0.00000000</i>
     <i name="EBREAK">      0.00000000</i>
     <i name="DEPER">      0.30000000</i>
     <i type="int" name="NRMM">     4</i>
     <i name="TIME">      0.40000000</i>
    </separator>
   </separator>
   <separator name="electronic mixer" >
    <i name="AMIX">      0.40000000</i>
    <i name="BMIX">      1.00000000</i>
    <i name="AMIN">      0.10000000</i>
    <i name="AMIX_MAG">      1.60000000</i>
    <i name="BMIX_MAG">      1.00000000</i>
    <separator name="electronic mixer details" >
     <i type="int" name="IMIX">     4</i>
     <i type="logical" name="MIXFIRST"> F  </i>
     <i type="int" name="MAXMIX">   -45</i>
     <i name="WC">    100.00000000</i>
     <i type="int" name="INIMIX">     1</i>
     <i type="int" name="MIXPRE">     1</i>
     <i type="int" name="MREMOVE">     5</i>
    </separator>
   </separator>
   <separator name="electronic dipolcorrection" >
    <i type="logical" name="LDIPOL"> F  </i>
    <i type="logical" name="LMONO"> F  </i>
    <i type="int" name="IDIPOL">     0</i>
    <i name="EPSILON">      1.00000000</i>
    <v name="DIPOL">   -100.00000000   -100.00000000   -100.00000000</v>
    <i name="EFIELD">      0.00000000</i>
   </separator>
  </separator>
  <separator name="grids" >
   <i type="int" name="NGX">   128</i>
   <i type="int" name="NGY">   128</i>
   <i type="int" name="NGZ">   150</i>
   <i type="int" name="NGXF">   256</i>
   <i type="int" name="NGYF">   256</i>
   <i type="int" name="NGZF">   300</i>
   <i type="logical" name="ADDGRID"> T  </i>
  </separator>
  <separator name="ionic" >
   <i type="int" name="NSW">     0</i>
   <i type="int" name="IBRION">    -1</i>
   <i type="int" name="MDALGO">     0</i>
   <i type="int" name="ISIF">     2</i>
   <i name="PSTRESS">      0.00000000</i>
   <i name="EDIFFG">     -0.00000001</i>
   <i type="int" name="NFREE">     0</i>
   <i name="POTIM">      0.50000000</i>
   <i name="SMASS">     -3.00000000</i>
   <i name="SCALEE">      1.00000000</i>
  </separator>
  <separator name="ionic md" >
   <i name="TEBEG">      0.00010000</i>
   <i name="TEEND">      0.00010000</i>
   <i type="int" name="NBLOCK">     1</i>
   <i type="int" name="KBLOCK">     1</i>
   <i type="int" name="NPACO">   256</i>
   <i name="APACO">     16.00000000</i>
  </separator>
  <separator name="symmetry" >
   <i type="int" name="ISYM">     2</i>
   <i name="SYMPREC">      0.00001000</i>
  </separator>
  <separator name="dos" >
   <i type="int" name="LORBIT">     0</i>
   <v name="RWIGS">     -1.00000000     -1.00000000     -1.00000000</v>
   <i type="int" name="NEDOS">   301</i>
   <i name="EMIN">     10.00000000</i>
   <i name="EMAX">    -10.00000000</i>
   <i name="EFERMI">      0.00000000</i>
  </separator>
  <separator name="writing" >
   <i type="int" name="NWRITE">     2</i>
   <i type="logical" name="LWAVE"> F  </i>
   <i type="logical" name="LDOWNSAMPLE"> F  </i>
   <i type="logical" name="LCHARG"> F  </i>
   <i type="logical" name="LPARD"> F  </i>
   <i type="logical" name="LVTOT"> F  </i>
   <i type="logical" name="LVHAR"> F  </i>
   <i type="logical" name="LELF"> F  </i>
   <i type="logical" name="LOPTICS"> F  </i>
   <v name="STM">      0.00000000      0.00000000      0.00000000      0.00000000      0.00000000      0.00000000      0.00000000</v>
  </separator>
  <separator name="performance" >
   <i type="int" name="NPAR">     4</i>
   <i type="int" name="NSIM">     4</i>
   <i type="int" name="NBLK">    -1</i>
   <i type="logical" name="LPLANE"> T  </i>
   <i type="logical" name="LSCALAPACK"> T  </i>
   <i type="logical" name="LSCAAWARE"> F  </i>
   <i type="logical" name="LSCALU"> F  </i>
   <i type="logical" name="LASYNC"> F  </i>
   <i type="logical" name="LORBITALREAL"> F  </i>
  </separator>
  <separator name="miscellaneous" >
   <i type="int" name="IDIOT">     3</i>
   <i type="int" name="ISPECIAL">     0</i>
   <i type="logical" name="LMUSIC"> F  </i>
   <v name="POMASS">     10.81100000     14.00100000     12.01100000</v>
   <v name="DARWINR">      0.00000000      0.00000000      0.00000000</v>
   <v name="DARWINV">      1.00000000      1.00000000      1.00000000</v>
   <i type="logical" name="LCORR"> T  </i>
  </separator>
  <i type="logical" name="GGA_COMPAT"> T  </i>
  <i type="logical" name="LBERRY"> F  </i>
  <i type="int" name="ICORELEVEL">     0</i>
  <i type="logical" name="LDAU"> F  </i>
  <i type="int" name="I_CONSTRAINED_M">     0</i>
  <separator name="electronic exchange-correlation" >
   <i type="string" name="GGA">--</i>
   <i type="int" name="VOSKOWN">     0</i>
   <i type="logical" name="LHFCALC"> F  </i>
   <i type="string" name="PRECFOCK"></i>
   <i type="logical" name="LSYMGRAD"> F  </i>
   <i type="logical" name="LHFONE"> F  </i>
   <i type="logical" name="LRHFCALC"> F  </i>
   <i type="logical" name="LTHOMAS"> F  </i>
   <i type="logical" name="LMODELHF"> F  </i>
   <i name="ENCUT4O">     -1.00000000</i>
   <i type="int" name="EXXOEP">     0</i>
   <i type="int" name="FOURORBIT">     0</i>
   <i name="AEXX">      0.00000000</i>
   <i name="HFALPHA">      0.00000000</i>
   <i name="MCALPHA">      0.00000000</i>
   <i name="ALDAX">      1.00000000</i>
   <i name="AGGAX">      1.00000000</i>
   <i name="ALDAC">      1.00000000</i>
   <i name="AGGAC">      1.00000000</i>
   <i type="int" name="NKREDX">     1</i>
   <i type="int" name="NKREDY">     1</i>
   <i type="int" name="NKREDZ">     1</i>
   <i type="logical" name="SHIFTRED"> F  </i>
   <i type="logical" name="ODDONLY"> F  </i>
   <i type="logical" name="EVENONLY"> F  </i>
   <i type="int" name="LMAXFOCK">     0</i>
   <i type="int" name="NMAXFOCKAE">     0</i>
   <i type="logical" name="LFOCKAEDFT"> F  </i>
   <i name="HFSCREEN">      0.00000000</i>
   <i name="HFSCREENC">      0.00000000</i>
   <i type="int" name="NBANDSGWLOW">     0</i>
  </separator>
  <separator name="vdW DFT" >
   <i type="logical" name="LUSE_VDW"> F  </i>
   <i name="Zab_VDW">     -0.84910000</i>
   <i name="PARAM1">      0.12340000</i>
   <i name="PARAM2">      1.00000000</i>
   <i name="PARAM3">      0.00000000</i>
  </separator>
  <separator name="model GW" >
   <i type="int" name="MODEL_GW">     0</i>
   <i name="MODEL_EPS0">     33.05532754</i>
   <i name="MODEL_ALPHA">      1.00000000</i>
  </separator>
  <separator name="linear response parameters" >
   <i type="logical" name="LEPSILON"> F  </i>
   <i type="logical" name="LRPA"> F  </i>
   <i type="logical" name="LNABLA"> F  </i>
   <i type="logical" name="LVEL"> F  </i>
   <i type="int" name="KINTER">     0</i>
   <i name="CSHIFT">      0.10000000</i>
   <i name="OMEGAMAX">     -1.00000000</i>
   <i name="DEG_THRESHOLD">      0.00200000</i>
   <i name="RTIME">     -0.10000000</i>
   <i name="WPLASMAI">      0.00000000</i>
   <v name="DFIELD">      0.00000000      0.00000000      0.00000000</v>
   <v name="WPLASMA">      0.00000000      0.00000000      0.00000000      0.00000000      0.00000000      0.00000000      0.00000000      0.00000000      0.00000000</v>
  </separator>
  <separator name="orbital magnetization" >
   <i type="logical" name="NUCIND"> F  </i>
   <v name="MAGPOS">      0.00000000      0.00000000      0.00000000</v>
   <i type="logical" name="LNICSALL"> T  </i>
   <i type="logical" name="ORBITALMAG"> F  </i>
   <i type="logical" name="LMAGBLOCH"> F  </i>
   <i type="logical" name="LCHIMAG"> F  </i>
   <i type="logical" name="LGAUGE"> T  </i>
   <i type="int" name="MAGATOM">     0</i>
   <v name="MAGDIPOL">      0.00000000      0.00000000      0.00000000</v>
   <v name="AVECCONST">      0.00000000      0.00000000      0.00000000</v>
  </separator>
  <separator name="response functions" >
   <i type="logical" name="LADDER"> F  </i>
   <i type="logical" name="LRPAFORCE"> F  </i>
   <i type="logical" name="LFXC"> F  </i>
   <i type="logical" name="LHARTREE"> T  </i>
   <i type="int" name="IBSE">     0</i>
   <v type="int" name="KPOINT">    -1     0     0     0</v>
   <i type="logical" name="LTCTE"> F  </i>
   <i type="logical" name="LTETE"> F  </i>
   <i type="logical" name="LTRIPLET"> F  </i>
   <i type="logical" name="LFXCEPS"> F  </i>
   <i type="logical" name="LFXHEG"> F  </i>
   <i type="int" name="NATURALO">     2</i>
   <i type="logical" name="L2ORDER"> F  </i>
   <i type="logical" name="LMP2LT"> F  </i>
   <i type="logical" name="LUSEW"> F  </i>
   <i name="ENCUTGW">     -2.00000000</i>
   <i name="ENCUTGWSOFT">     -2.00000000</i>
   <i name="ENCUTLF">     -1.00000000</i>
   <i type="int" name="LMAXMP2">    -1</i>
   <i name="SCISSOR">      0.00000000</i>
   <i type="int" name="NOMEGA">     0</i>
   <i type="int" name="NOMEGAR">     0</i>
   <i type="int" name="NBANDSGW">    -1</i>
   <i type="int" name="NBANDSO">    -1</i>
   <i type="int" name="NBANDSV">    -1</i>
   <i type="int" name="NELM">     1</i>
   <i type="int" name="NELMHF">     1</i>
   <i type="int" name="DIM">     3</i>
   <i type="int" name="ANTIRES">     0</i>
   <i name="OMEGAMAX">    -30.00000000</i>
   <i name="OMEGAMIN">    -30.00000000</i>
   <i name="OMEGATL">   -200.00000000</i>
   <i type="int" name="OMEGAGRID">   140</i>
   <i name="CSHIFT">     -0.10000000</i>
   <i type="logical" name="SELFENERGY"> F  </i>
   <i type="logical" name="LSPECTRAL"> F  </i>
   <i type="logical" name="LSPECTRALGW"> F  </i>
   <i type="logical" name="LSINGLES"> F  </i>
   <i type="logical" name="LFERMIGW"> F  </i>
   <i type="logical" name="ODDONLYGW"> F  </i>
   <i type="logical" name="EVENONLYGW"> F  </i>
   <i type="int" name="NKREDLFX">     1</i>
   <i type="int" name="NKREDLFY">     1</i>
   <i type="int" name="NKREDLFZ">     1</i>
   <i type="int" name="MAXMEM">  2800</i>
   <i type="int" name="TELESCOPE">     0</i>
   <i type="int" name="TAUPAR">     1</i>
   <i type="int" name="OMEGAPAR">    -1</i>
   <i name="LAMBDA">      1.00000000</i>
  </separator>
  <separator name="External order field" >
   <i name="OFIELD_KAPPA">      0.00000000</i>
   <v name="OFIELD_K">      0.00000000      0.00000000      0.00000000</v>
   <i name="OFIELD_Q6_NEAR">      0.00000000</i>
   <i name="OFIELD_Q6_FAR">      0.00000000</i>
   <i name="OFIELD_A">      0.00000000</i>
  </separator>
 </parameters>
 <atominfo>
  <atoms>      97 </atoms>
  <types>       3 </types>
  <array name="atoms" >
   <dimension dim="1">ion</dimension>
   <field type="string">element</field>
   <field type="int">atomtype</field>
   <set>
    <rc><c>B </c><c>   1</c></rc>
    <rc><c>B </c><c>   1</c></rc>
    <rc><c>B </c><c>   1</c></rc>
    <rc><c>B </c><c>   1</c></rc>
    <rc><c>B </c><c>   1</c></rc>
    <rc><c>B </c><c>   1</c></rc>
    <rc><c>B </c><c>   1</c></rc>
    <rc><c>B </c><c>   1</c></rc>
    <rc><c>B </c><c>   1</c></rc>
    <rc><c>B </c><c>   1</c></rc>
    <rc><c>B </c><c>   1</c></rc>
    <rc><c>B </c><c>   1</c></rc>
    <rc><c>B </c><c>   1</c></rc>
    <rc><c>B </c><c>   1</c></rc>
    <rc><c>B </c><c>   1</c></rc>
    <rc><c>B </c><c>   1</c></rc>
    <rc><c>B </c><c>   1</c></rc>
    <rc><c>B </c><c>   1</c></rc>
    <rc><c>B </c><c>   1</c></rc>
    <rc><c>B </c><c>   1</c></rc>
    <rc><c>B </c><c>   1</c></rc>
    <rc><c>B </c><c>   1</c></rc>
    <rc><c>B </c><c>   1</c></rc>
    <rc><c>B </c><c>   1</c></rc>
    <rc><c>B </c><c>   1</c></rc>
    <rc><c>B </c><c>   1</c></rc>
    <rc><c>B </c><c>   1</c></rc>
    <rc><c>B </c><c>   1</c></rc>
    <rc><c>B </c><c>   1</c></rc>
    <rc><c>B </c><c>   1</c></rc>
    <rc><c>B </c><c>   1</c></rc>
    <rc><c>B </c><c>   1</c></rc>
    <rc><c>B </c><c>   1</c></rc>
    <rc><c>B </c><c>   1</c></rc>
    <rc><c>B </c><c>   1</c></rc>
    <rc><c>B </c><c>   1</c></rc>
    <rc><c>B </c><c>   1</c></rc>
    <rc><c>B </c><c>   1</c></rc>
    <rc><c>B </c><c>   1</c></rc>
    <rc><c>B </c><c>   1</c></rc>
    <rc><c>B </c><c>   1</c></rc>
    <rc><c>B </c><c>   1</c></rc>
    <rc><c>B </c><c>   1</c></rc>
    <rc><c>B </c><c>   1</c></rc>
    <rc><c>B </c><c>   1</c></rc>
    <rc><c>B </c><c>   1</c></rc>
    <rc><c>B </c><c>   1</c></rc>
    <rc><c>B </c><c>   1</c></rc>
    <rc><c>N </c><c>   2</c></rc>
    <rc><c>N </c><c>   2</c></rc>
    <rc><c>N </c><c>   2</c></rc>
    <rc><c>N </c><c>   2</c></rc>
    <rc><c>N </c><c>   2</c></rc>
    <rc><c>N </c><c>   2</c></rc>
    <rc><c>N </c><c>   2</c></rc>
    <rc><c>N </c><c>   2</c></rc>
    <rc><c>N </c><c>   2</c></rc>
    <rc><c>N </c><c>   2</c></rc>
    <rc><c>N </c><c>   2</c></rc>
    <rc><c>N </c><c>   2</c></rc>
    <rc><c>N </c><c>   2</c></rc>
    <rc><c>N </c><c>   2</c></rc>
    <rc><c>N </c><c>   2</c></rc>
    <rc><c>N </c><c>   2</c></rc>
    <rc><c>N </c><c>   2</c></rc>
    <rc><c>N </c><c>   2</c></rc>
    <rc><c>N </c><c>   2</c></rc>
    <rc><c>N </c><c>   2</c></rc>
    <rc><c>N </c><c>   2</c></rc>
    <rc><c>N </c><c>   2</c></rc>
    <rc><c>N </c><c>   2</c></rc>
    <rc><c>N </c><c>   2</c></rc>
    <rc><c>N </c><c>   2</c></rc>
    <rc><c>N </c><c>   2</c></rc>
    <rc><c>N </c><c>   2</c></rc>
    <rc><c>N </c><c>   2</c></rc>
    <rc><c>N </c><c>   2</c></rc>
    <rc><c>N </c><c>   2</c></rc>
    <rc><c>N </c><c>   2</c></rc>
    <rc><c>N </c><c>   2</c></rc>
    <rc><c>N </c><c>   2</c></rc>
    <rc><c>N </c><c>   2</c></rc>
    <rc><c>N </c><c>   2</c></rc>
    <rc><c>N </c><c>   2</c></rc>
    <rc><c>N </c><c>   2</c></rc>
    <rc><c>N </c><c>   2</c></rc>
    <rc><c>N </c><c>   2</c></rc>
    <rc><c>N </c><c>   2</c></rc>
    <rc><c>N </c><c>   2</c></rc>
    <rc><c>N </c><c>   2</c></rc>
    <rc><c>N </c><c>   2</c></rc>
    <rc><c>N </c><c>   2</c></rc>
    <rc><c>N </c><c>   2</c></rc>
    <rc><c>N </c><c>   2</c></rc>
    <rc><c>N </c><c>   2</c></rc>
    <rc><c>N </c><c>   2</c></rc>
    <rc><c>C </c><c>   3</c></rc>
   </set>
  </array>
  <array name="atomtypes" >
   <dimension dim="1">type</dimension>
   <field type="int">atomspertype</field>
   <field type="string">element</field>
   <field>mass</field>
   <field>valence</field>
   <field type="string">pseudopotential</field>
   <set>
    <rc><c>  48</c><c>B </c><c>     10.81100000</c><c>      3.00000000</c><c>  PAW_PBE B 06Sep2000                   </c></rc>
    <rc><c>  48</c><c>N </c><c>     14.00100000</c><c>      5.00000000</c><c>  PAW_PBE N 08Apr2002                   </c></rc>
    <rc><c>   1</c><c>C </c><c>     12.01100000</c><c>      4.00000000</c><c>  PAW_PBE C 08Apr2002                   </c></rc>
   </set>
  </array>
 </atominfo>
 <structure name="initialpos" >
  <crystal>
   <varray name="basis" >
    <v>      17.59966831       0.00000000       0.00000000 </v>
    <v>      -8.79983416      15.24175986       0.00000000 </v>
    <v>       0.00000000       0.00000000      19.92151445 </v>
   </varray>
   <i name="volume">   5343.94461817 </i>
   <varray name="rec_basis" >
    <v>       0.05681925       0.03280461       0.00000000 </v>
    <v>       0.00000000       0.06560922       0.00000000 </v>
    <v>       0.00000000       0.00000000       0.05019699 </v>
   </varray>
  </crystal>
  <varray name="positions" >
   <v>       0.99943010       0.00005992       0.50000000 </v>
   <v>       0.14164706       0.99871895       0.50000000 </v>
   <v>       0.28492260       0.99841663       0.50000000 </v>
   <v>       0.42850047       0.99871895       0.50000000 </v>
   <v>       0.57205839       0.00005992       0.50000000 </v>
   <v>       0.71530655       0.00214292       0.50000000 </v>
   <v>       0.85826494       0.00214292       0.50000000 </v>
   <v>       0.00080792       0.14408264       0.50000000 </v>
   <v>       0.14259355       0.14244783       0.50000000 </v>
   <v>       0.28470221       0.14112972       0.50000000 </v>
   <v>       0.42785608       0.14112972       0.50000000 </v>
   <v>       0.57128286       0.14244783       0.50000000 </v>
   <v>       0.71470329       0.14408264       0.50000000 </v>
   <v>       0.85805263       0.14467669       0.50000000 </v>
   <v>       0.00095476       0.28713011       0.50000000 </v>
   <v>       0.14372552       0.28645370       0.50000000 </v>
   <v>       0.28540977       0.28469374       0.50000000 </v>
   <v>       0.42724431       0.28306005       0.50000000 </v>
   <v>       0.57071254       0.28469374       0.50000000 </v>
   <v>       0.71415674       0.28645370       0.50000000 </v>
   <v>       0.85760392       0.28713011       0.50000000 </v>
   <v>       0.00054479       0.42966101       0.50000000 </v>
   <v>       0.14422690       0.42957551       0.50000000 </v>
   <v>       0.28730213       0.42918005       0.50000000 </v>
   <v>       0.42797654       0.42569726       0.50000000 </v>
   <v>       0.56914930       0.42569726       0.50000000 </v>
   <v>       0.71330650       0.42918005       0.50000000 </v>
   <v>       0.85677719       0.42957551       0.50000000 </v>
   <v>       0.99928255       0.57181462       0.50000000 </v>
   <v>       0.14396064       0.57181462       0.50000000 </v>
   <v>       0.28862787       0.57181625       0.50000000 </v>
   <v>       0.43313209       0.57215564       0.50000000 </v>
   <v>       0.71045212       0.57215564       0.50000000 </v>
   <v>       0.85461695       0.57181625       0.50000000 </v>
   <v>       0.99707234       0.71370518       0.50000000 </v>
   <v>       0.14255519       0.71368182       0.50000000 </v>
   <v>       0.28806142       0.71370518       0.50000000 </v>
   <v>       0.43464191       0.71382540       0.50000000 </v>
   <v>       0.58510826       0.71626937       0.50000000 </v>
   <v>       0.70258968       0.71626937       0.50000000 </v>
   <v>       0.85061206       0.71382540       0.50000000 </v>
   <v>       0.99777175       0.85613493       0.50000000 </v>
   <v>       0.14160898       0.85591288       0.50000000 </v>
   <v>       0.28573247       0.85591288       0.50000000 </v>
   <v>       0.42979175       0.85613493       0.50000000 </v>
   <v>       0.57342541       0.85758690       0.50000000 </v>
   <v>       0.71640633       0.86138410       0.50000000 </v>
   <v>       0.85559006       0.85758690       0.50000000 </v>
   <v>       0.04754270       0.09547788       0.50000000 </v>
   <v>       0.18957833       0.09405657       0.50000000 </v>
   <v>       0.33254182       0.09365506       0.50000000 </v>
   <v>       0.47590681       0.09405657       0.50000000 </v>
   <v>       0.61936376       0.09547788       0.50000000 </v>
   <v>       0.76280004       0.09719274       0.50000000 </v>
   <v>       0.90582126       0.09719274       0.50000000 </v>
   <v>       0.04854983       0.23934281       0.50000000 </v>
   <v>       0.19048138       0.23782962       0.50000000 </v>
   <v>       0.33234878       0.23634667       0.50000000 </v>
   <v>       0.47542646       0.23634667       0.50000000 </v>
   <v>       0.61877681       0.23782962       0.50000000 </v>
   <v>       0.76222155       0.23934281       0.50000000 </v>
   <v>       0.90562797       0.23982737       0.50000000 </v>
   <v>       0.04871288       0.38232824       0.50000000 </v>
   <v>       0.19188940       0.38184213       0.50000000 </v>
   <v>       0.33352206       0.38013969       0.50000000 </v>
   <v>       0.47472270       0.37801683       0.50000000 </v>
   <v>       0.61804620       0.38013969       0.50000000 </v>
   <v>       0.76138130       0.38184213       0.50000000 </v>
   <v>       0.90504393       0.38232824       0.50000000 </v>
   <v>       0.04810654       0.52478452       0.50000000 </v>
   <v>       0.19263929       0.52476864       0.50000000 </v>
   <v>       0.33696521       0.52455433       0.50000000 </v>
   <v>       0.47833704       0.52146721       0.50000000 </v>
   <v>       0.61455874       0.52146721       0.50000000 </v>
   <v>       0.75901769       0.52455433       0.50000000 </v>
   <v>       0.90355792       0.52476864       0.50000000 </v>
   <v>       0.04642473       0.66685228       0.50000000 </v>
   <v>       0.19185612       0.66685228       0.50000000 </v>
   <v>       0.33777931       0.66688794       0.50000000 </v>
   <v>       0.48615700       0.66653941       0.50000000 </v>
   <v>       0.75237918       0.66710760       0.50000000 </v>
   <v>       0.90053720       0.66688794       0.50000000 </v>
   <v>       0.04582562       0.80879365       0.50000000 </v>
   <v>       0.19009580       0.80876303       0.50000000 </v>
   <v>       0.33439660       0.80879365       0.50000000 </v>
   <v>       0.47844872       0.80897069       0.50000000 </v>
   <v>       0.62209487       0.81129474       0.50000000 </v>
   <v>       0.76062845       0.81129474       0.50000000 </v>
   <v>       0.90195054       0.80897069       0.50000000 </v>
   <v>       0.04629157       0.95154386       0.50000000 </v>
   <v>       0.18948291       0.95113037       0.50000000 </v>
   <v>       0.33307603       0.95113037       0.50000000 </v>
   <v>       0.47668087       0.95154386       0.50000000 </v>
   <v>       0.62015751       0.95313740       0.50000000 </v>
   <v>       0.76355772       0.95568687       0.50000000 </v>
   <v>       0.90440847       0.95313740       0.50000000 </v>
   <v>       0.56830873       0.56518888       0.50000000 </v>
  </varray>
 </structure>
 <calculation>
  <scstep>
   <time name="dav">    2.36    2.38</time>
   <time name="total">    2.73    2.81</time>
   <energy>
    <i name="alphaZ">    156.50993408 </i>
    <i name="ewald">  58206.69869398 </i>
    <i name="hartreedc"> -70374.08800115 </i>
    <i name="XCdc">   1302.10886278 </i>
    <i name="pawpsdc">  12033.28670802 </i>
    <i name="pawaedc"> -12049.96799276 </i>
    <i name="eentropy">     -0.00000000 </i>
    <i name="bandstr">   -904.52059317 </i>
    <i name="atom">  16260.93880140 </i>
    <i name="e_fr_energy">   4630.96641318 </i>
    <i name="e_wo_entrp">   4630.96641318 </i>
    <i name="e_0_energy">   4630.96641318 </i>
   </energy>
  </scstep>
  <scstep>
   <time name="dav">    2.99    3.04</time>
   <time name="total">    3.00    3.04</time>
   <energy>
    <i name="e_fr_energy">    216.75880696 </i>
    <i name="e_wo_entrp">    216.75880696 </i>
    <i name="e_0_energy">    216.75880696 </i>
   </energy>
  </scstep>
  <scstep>
   <time name="dav">    2.47    2.51</time>
   <time name="total">    2.47    2.51</time>
   <energy>
    <i name="e_fr_energy">   -867.45084305 </i>
    <i name="e_wo_entrp">   -867.45084305 </i>
    <i name="e_0_energy">   -867.45084305 </i>
   </energy>
  </scstep>
  <scstep>
   <time name="dav">    2.47    2.50</time>
   <time name="total">    2.47    2.50</time>
   <energy>
    <i name="e_fr_energy">   -934.19458230 </i>
    <i name="e_wo_entrp">   -934.19458230 </i>
    <i name="e_0_energy">   -934.19458230 </i>
   </energy>
  </scstep>
  <scstep>
   <time name="dav">    2.50    2.53</time>
   <time name="total">    2.94    2.97</time>
   <energy>
    <i name="e_fr_energy">   -935.77506058 </i>
    <i name="e_wo_entrp">   -935.77506058 </i>
    <i name="e_0_energy">   -935.77506058 </i>
   </energy>
  </scstep>
  <scstep>
   <time name="dav">    2.33    2.36</time>
   <time name="total">    3.13    3.17</time>
   <energy>
    <i name="e_fr_energy">   -858.73151805 </i>
    <i name="e_wo_entrp">   -858.73151805 </i>
    <i name="e_0_energy">   -858.73151805 </i>
   </energy>
  </scstep>
  <scstep>
   <time name="dav">    2.35    2.37</time>
   <time name="total">    3.14    3.18</time>
   <energy>
    <i name="e_fr_energy">   -850.19176611 </i>
    <i name="e_wo_entrp">   -850.19176611 </i>
    <i name="e_0_energy">   -850.19176611 </i>
   </energy>
  </scstep>
  <scstep>
   <time name="dav">    2.28    2.30</time>
   <time name="total">    3.08    3.11</time>
   <energy>
    <i name="e_fr_energy">   -845.92483221 </i>
    <i name="e_wo_entrp">   -845.92482963 </i>
    <i name="e_0_energy">   -845.92483092 </i>
   </energy>
  </scstep>
  <scstep>
   <time name="dav">    2.31    2.33</time>
   <time name="total">    3.11    3.15</time>
   <energy>
    <i name="e_fr_energy">   -845.79940536 </i>
    <i name="e_wo_entrp">   -845.79940536 </i>
    <i name="e_0_energy">   -845.79940536 </i>
   </energy>
  </scstep>
  <scstep>
   <time name="dav">    2.37    2.39</time>
   <time name="total">    3.18    3.21</time>
   <energy>
    <i name="e_fr_energy">   -845.63772829 </i>
    <i name="e_wo_entrp">   -845.63772829 </i>
    <i name="e_0_energy">   -845.63772829 </i>
   </energy>
  </scstep>
  <scstep>
   <time name="dav">    2.23    2.25</time>
   <time name="total">    3.03    3.07</time>
   <energy>
    <i name="e_fr_energy">   -845.58553268 </i>
    <i name="e_wo_entrp">   -845.58553268 </i>
    <i name="e_0_energy">   -845.58553268 </i>
   </energy>
  </scstep>
  <scstep>
   <time name="dav">    2.26    2.29</time>
   <time name="total">    3.07    3.11</time>
   <energy>
    <i name="e_fr_energy">   -845.57266627 </i>
    <i name="e_wo_entrp">   -845.57266627 </i>
    <i name="e_0_energy">   -845.57266627 </i>
   </energy>
  </scstep>
  <scstep>
   <time name="dav">    2.23    2.25</time>
   <time name="total">    3.04    3.07</time>
   <energy>
    <i name="e_fr_energy">   -845.58330500 </i>
    <i name="e_wo_entrp">   -845.58330500 </i>
    <i name="e_0_energy">   -845.58330500 </i>
   </energy>
  </scstep>
  <scstep>
   <time name="dav">    2.23    2.25</time>
   <time name="total">    3.04    3.07</time>
   <energy>
    <i name="e_fr_energy">   -845.59281894 </i>
    <i name="e_wo_entrp">   -845.59281894 </i>
    <i name="e_0_energy">   -845.59281894 </i>
   </energy>
  </scstep>
  <scstep>
   <time name="dav">    2.21    2.24</time>
   <time name="total">    3.01    3.92</time>
   <energy>
    <i name="e_fr_energy">   -845.62419899 </i>
    <i name="e_wo_entrp">   -845.62419899 </i>
    <i name="e_0_energy">   -845.62419899 </i>
   </energy>
  </scstep>
  <scstep>
   <time name="dav">    2.19    2.21</time>
   <time name="total">    3.02    3.53</time>
   <energy>
    <i name="e_fr_energy">   -845.64048228 </i>
    <i name="e_wo_entrp">   -845.64048228 </i>
    <i name="e_0_energy">   -845.64048228 </i>
   </energy>
  </scstep>
  <scstep>
   <time name="dav">    2.33    2.35</time>
   <time name="total">    3.14    3.68</time>
   <energy>
    <i name="e_fr_energy">   -845.64675194 </i>
    <i name="e_wo_entrp">   -845.64675194 </i>
    <i name="e_0_energy">   -845.64675194 </i>
   </energy>
  </scstep>
  <scstep>
   <time name="dav">    2.18    2.21</time>
   <time name="total">    2.99    3.04</time>
   <energy>
    <i name="e_fr_energy">   -845.64990331 </i>
    <i name="e_wo_entrp">   -845.64990331 </i>
    <i name="e_0_energy">   -845.64990331 </i>
   </energy>
  </scstep>
  <scstep>
   <time name="dav">    2.30    2.32</time>
   <time name="total">    3.11    3.15</time>
   <energy>
    <i name="e_fr_energy">   -845.65092866 </i>
    <i name="e_wo_entrp">   -845.65092866 </i>
    <i name="e_0_energy">   -845.65092866 </i>
   </energy>
  </scstep>
  <scstep>
   <time name="dav">    2.23    2.25</time>
   <time name="total">    3.03    3.07</time>
   <energy>
    <i name="e_fr_energy">   -845.65134781 </i>
    <i name="e_wo_entrp">   -845.65134781 </i>
    <i name="e_0_energy">   -845.65134781 </i>
   </energy>
  </scstep>
  <scstep>
   <time name="dav">    2.25    2.27</time>
   <time name="total">    3.05    3.09</time>
   <energy>
    <i name="e_fr_energy">   -845.65155221 </i>
    <i name="e_wo_entrp">   -845.65155221 </i>
    <i name="e_0_energy">   -845.65155221 </i>
   </energy>
  </scstep>
  <scstep>
   <time name="dav">    2.18    2.20</time>
   <time name="total">    2.99    3.03</time>
   <energy>
    <i name="e_fr_energy">   -845.65166745 </i>
    <i name="e_wo_entrp">   -845.65166745 </i>
    <i name="e_0_energy">   -845.65166745 </i>
   </energy>
  </scstep>
  <scstep>
   <time name="dav">    2.25    2.27</time>
   <time name="total">    3.06    3.10</time>
   <energy>
    <i name="e_fr_energy">   -845.65174491 </i>
    <i name="e_wo_entrp">   -845.65174491 </i>
    <i name="e_0_energy">   -845.65174491 </i>
   </energy>
  </scstep>
  <scstep>
   <time name="dav">    2.28    2.30</time>
   <time name="total">    3.09    3.12</time>
   <energy>
    <i name="e_fr_energy">   -845.65178305 </i>
    <i name="e_wo_entrp">   -845.65178305 </i>
    <i name="e_0_energy">   -845.65178305 </i>
   </energy>
  </scstep>
  <scstep>
   <time name="dav">    2.23    2.25</time>
   <time name="total">    3.04    3.08</time>
   <energy>
    <i name="e_fr_energy">   -845.65180098 </i>
    <i name="e_wo_entrp">   -845.65180098 </i>
    <i name="e_0_energy">   -845.65180098 </i>
   </energy>
  </scstep>
  <scstep>
   <time name="dav">    2.20    2.23</time>
   <time name="total">    3.01    3.05</time>
   <energy>
    <i name="e_fr_energy">   -845.65181753 </i>
    <i name="e_wo_entrp">   -845.65181753 </i>
    <i name="e_0_energy">   -845.65181753 </i>
   </energy>
  </scstep>
  <scstep>
   <time name="dav">    2.20    2.23</time>
   <time name="total">    3.01    3.05</time>
   <energy>
    <i name="e_fr_energy">   -845.65182093 </i>
    <i name="e_wo_entrp">   -845.65182093 </i>
    <i name="e_0_energy">   -845.65182093 </i>
   </energy>
  </scstep>
  <scstep>
   <time name="dav">    1.91    1.94</time>
   <time name="total">    2.72    2.78</time>
   <energy>
    <i name="e_fr_energy">   -845.65182228 </i>
    <i name="e_wo_entrp">   -845.65182228 </i>
    <i name="e_0_energy">   -845.65182228 </i>
   </energy>
  </scstep>
  <scstep>
   <time name="dav">    1.74    1.76</time>
   <time name="total">    2.56    2.59</time>
   <energy>
    <i name="e_fr_energy">   -845.65182256 </i>
    <i name="e_wo_entrp">   -845.65182256 </i>
    <i name="e_0_energy">   -845.65182256 </i>
   </energy>
  </scstep>
  <scstep>
   <time name="dav">    1.69    1.71</time>
   <time name="total">    2.51    2.54</time>
   <energy>
    <i name="e_fr_energy">   -845.65182266 </i>
    <i name="e_wo_entrp">   -845.65182266 </i>
    <i name="e_0_energy">   -845.65182266 </i>
   </energy>
  </scstep>
  <scstep>
   <time name="dav">    1.67    1.68</time>
   <time name="total">    2.49    2.52</time>
   <energy>
    <i name="e_fr_energy">   -845.65182272 </i>
    <i name="e_wo_entrp">   -845.65182272 </i>
    <i name="e_0_energy">   -845.65182272 </i>
   </energy>
  </scstep>
  <scstep>
   <time name="dav">    1.72    1.74</time>
   <time name="total">    2.55    2.59</time>
   <energy>
    <i name="e_fr_energy">   -845.65182275 </i>
    <i name="e_wo_entrp">   -845.65182275 </i>
    <i name="e_0_energy">   -845.65182275 </i>
   </energy>
  </scstep>
  <scstep>
   <time name="dav">    1.82    1.83</time>
   <time name="total">    2.19    2.22</time>
   <energy>
    <i name="alphaZ">    156.50993408 </i>
    <i name="ewald">  58206.69869398 </i>
    <i name="hartreedc"> -72314.17123179 </i>
    <i name="XCdc">   1369.72501461 </i>
    <i name="pawpsdc">  44019.67065768 </i>
    <i name="pawaedc"> -44055.01295529 </i>
    <i name="eentropy">     -0.00000000 </i>
    <i name="bandstr">  -4490.01073742 </i>
    <i name="atom">  16260.93880140 </i>
    <i name="e_fr_energy">   -845.65182275 </i>
    <i name="e_wo_entrp">   -845.65182275 </i>
    <i name="e_0_energy">   -845.65182275 </i>
   </energy>
  </scstep>
  <structure>
   <crystal>
    <varray name="basis" >
     <v>      17.59966831       0.00000000       0.00000000 </v>
     <v>      -8.79983416      15.24175986       0.00000000 </v>
     <v>       0.00000000       0.00000000      19.92151445 </v>
    </varray>
    <i name="volume">   5343.94461817 </i>
    <varray name="rec_basis" >
     <v>       0.05681925       0.03280461       0.00000000 </v>
     <v>       0.00000000       0.06560922       0.00000000 </v>
     <v>       0.00000000       0.00000000       0.05019699 </v>
    </varray>
   </crystal>
   <varray name="positions" >
    <v>       0.99943010       0.00005992       0.50000000 </v>
    <v>       0.14164706       0.99871895       0.50000000 </v>
    <v>       0.28492260       0.99841663       0.50000000 </v>
    <v>       0.42850047       0.99871895       0.50000000 </v>
    <v>       0.57205839       0.00005992       0.50000000 </v>
    <v>       0.71530655       0.00214292       0.50000000 </v>
    <v>       0.85826494       0.00214292       0.50000000 </v>
    <v>       0.00080792       0.14408264       0.50000000 </v>
    <v>       0.14259355       0.14244783       0.50000000 </v>
    <v>       0.28470221       0.14112972       0.50000000 </v>
    <v>       0.42785608       0.14112972       0.50000000 </v>
    <v>       0.57128286       0.14244783       0.50000000 </v>
    <v>       0.71470329       0.14408264       0.50000000 </v>
    <v>       0.85805263       0.14467669       0.50000000 </v>
    <v>       0.00095476       0.28713011       0.50000000 </v>
    <v>       0.14372552       0.28645370       0.50000000 </v>
    <v>       0.28540977       0.28469374       0.50000000 </v>
    <v>       0.42724431       0.28306005       0.50000000 </v>
    <v>       0.57071254       0.28469374       0.50000000 </v>
    <v>       0.71415674       0.28645370       0.50000000 </v>
    <v>       0.85760392       0.28713011       0.50000000 </v>
    <v>       0.00054479       0.42966101       0.50000000 </v>
    <v>       0.14422690       0.42957551       0.50000000 </v>
    <v>       0.28730213       0.42918005       0.50000000 </v>
    <v>       0.42797654       0.42569726       0.50000000 </v>
    <v>       0.56914930       0.42569726       0.50000000 </v>
    <v>       0.71330650       0.42918005       0.50000000 </v>
    <v>       0.85677719       0.42957551       0.50000000 </v>
    <v>       0.99928255       0.57181462       0.50000000 </v>
    <v>       0.14396064       0.57181462       0.50000000 </v>
    <v>       0.28862787       0.57181625       0.50000000 </v>
    <v>       0.43313209       0.57215564       0.50000000 </v>
    <v>       0.71045212       0.57215564       0.50000000 </v>
    <v>       0.85461695       0.57181625       0.50000000 </v>
    <v>       0.99707234       0.71370518       0.50000000 </v>
    <v>       0.14255519       0.71368182       0.50000000 </v>
    <v>       0.28806142       0.71370518       0.50000000 </v>
    <v>       0.43464191       0.71382540       0.50000000 </v>
    <v>       0.58510826       0.71626937       0.50000000 </v>
    <v>       0.70258968       0.71626937       0.50000000 </v>
    <v>       0.85061206       0.71382540       0.50000000 </v>
    <v>       0.99777175       0.85613493       0.50000000 </v>
    <v>       0.14160898       0.85591288       0.50000000 </v>
    <v>       0.28573247       0.85591288       0.50000000 </v>
    <v>       0.42979175       0.85613493       0.50000000 </v>
    <v>       0.57342541       0.85758690       0.50000000 </v>
    <v>       0.71640633       0.86138410       0.50000000 </v>
    <v>       0.85559006       0.85758690       0.50000000 </v>
    <v>       0.04754270       0.09547788       0.50000000 </v>
    <v>       0.18957833       0.09405657       0.50000000 </v>
    <v>       0.33254182       0.09365506       0.50000000 </v>
    <v>       0.47590681       0.09405657       0.50000000 </v>
    <v>       0.61936376       0.09547788       0.50000000 </v>
    <v>       0.76280004       0.09719274       0.50000000 </v>
    <v>       0.90582126       0.09719274       0.50000000 </v>
    <v>       0.04854983       0.23934281       0.50000000 </v>
    <v>       0.19048138       0.23782962       0.50000000 </v>
    <v>       0.33234878       0.23634667       0.50000000 </v>
    <v>       0.47542646       0.23634667       0.50000000 </v>
    <v>       0.61877681       0.23782962       0.50000000 </v>
    <v>       0.76222155       0.23934281       0.50000000 </v>
    <v>       0.90562797       0.23982737       0.50000000 </v>
    <v>       0.04871288       0.38232824       0.50000000 </v>
    <v>       0.19188940       0.38184213       0.50000000 </v>
    <v>       0.33352206       0.38013969       0.50000000 </v>
    <v>       0.47472270       0.37801683       0.50000000 </v>
    <v>       0.61804620       0.38013969       0.50000000 </v>
    <v>       0.76138130       0.38184213       0.50000000 </v>
    <v>       0.90504393       0.38232824       0.50000000 </v>
    <v>       0.04810654       0.52478452       0.50000000 </v>
    <v>       0.19263929       0.52476864       0.50000000 </v>
    <v>       0.33696521       0.52455433       0.50000000 </v>
    <v>       0.47833704       0.52146721       0.50000000 </v>
    <v>       0.61455874       0.52146721       0.50000000 </v>
    <v>       0.75901769       0.52455433       0.50000000 </v>
    <v>       0.90355792       0.52476864       0.50000000 </v>
    <v>       0.04642473       0.66685228       0.50000000 </v>
    <v>       0.19185612       0.66685228       0.50000000 </v>
    <v>       0.33777931       0.66688794       0.50000000 </v>
    <v>       0.48615700       0.66653941       0.50000000 </v>
    <v>       0.75237918       0.66710760       0.50000000 </v>
    <v>       0.90053720       0.66688794       0.50000000 </v>
    <v>       0.04582562       0.80879365       0.50000000 </v>
    <v>       0.19009580       0.80876303       0.50000000 </v>
    <v>       0.33439660       0.80879365       0.50000000 </v>
    <v>       0.47844872       0.80897069       0.50000000 </v>
    <v>       0.62209487       0.81129474       0.50000000 </v>
    <v>       0.76062845       0.81129474       0.50000000 </v>
    <v>       0.90195054       0.80897069       0.50000000 </v>
    <v>       0.04629157       0.95154386       0.50000000 </v>
    <v>       0.18948291       0.95113037       0.50000000 </v>
    <v>       0.33307603       0.95113037       0.50000000 </v>
    <v>       0.47668087       0.95154386       0.50000000 </v>
    <v>       0.62015751       0.95313740       0.50000000 </v>
    <v>       0.76355772       0.95568687       0.50000000 </v>
    <v>       0.90440847       0.95313740       0.50000000 </v>
    <v>       0.56830873       0.56518888       0.50000000 </v>
   </varray>
  </structure>
  <varray name="forces" >
   <v>      -0.03933652      -0.02582598       0.00000000 </v>
   <v>      -0.02272407      -0.00845265       0.00000000 </v>
   <v>      -0.00198622      -0.01094250       0.00000000 </v>
   <v>       0.01868457      -0.00705219       0.00000000 </v>
   <v>       0.03909396      -0.02237583       0.00000000 </v>
   <v>      -0.03015294      -0.04702528       0.00000000 </v>
   <v>       0.03636265      -0.04924027       0.00000000 </v>
   <v>      -0.00484710      -0.02614898       0.00000000 </v>
   <v>      -0.02686607      -0.02382213       0.00000000 </v>
   <v>      -0.00841449      -0.03105123       0.00000000 </v>
   <v>       0.00627541      -0.03101568       0.00000000 </v>
   <v>       0.02595781      -0.02311105       0.00000000 </v>
   <v>       0.00644278      -0.02502500       0.00000000 </v>
   <v>       0.00148126      -0.04044201       0.00000000 </v>
   <v>      -0.00747487      -0.02917370       0.00000000 </v>
   <v>       0.00649539      -0.04322257       0.00000000 </v>
   <v>      -0.03016720       0.00149418       0.00000000 </v>
   <v>      -0.00052397      -0.08985528       0.00000000 </v>
   <v>       0.02918013      -0.00029151      -0.00000000 </v>
   <v>      -0.00606782      -0.04305733       0.00000000 </v>
   <v>       0.00885785      -0.02877103       0.00000000 </v>
   <v>       0.00032770       0.00632267       0.00000000 </v>
   <v>      -0.02285996      -0.00308393       0.00000000 </v>
   <v>       0.05987478      -0.13255547       0.00000000 </v>
   <v>      -0.10685699      -0.18872749       0.00000000 </v>
   <v>       0.10909971      -0.19673871       0.00000000 </v>
   <v>      -0.05954209      -0.13775183       0.00000000 </v>
   <v>       0.02450301      -0.00101363       0.00000000 </v>
   <v>       0.01584649       0.02814702      -0.00000000 </v>
   <v>      -0.01705426       0.02577861      -0.00000000 </v>
   <v>      -0.07636544       0.11043808      -0.00000000 </v>
   <v>       0.08217090       0.20565663       0.00000000 </v>
   <v>      -0.05501778       0.39475771      -0.00000000 </v>
   <v>       0.08364808       0.12752447       0.00000000 </v>
   <v>      -0.01014138       0.02185896       0.00000000 </v>
   <v>      -0.00209634       0.02756066       0.00000000 </v>
   <v>       0.00140491       0.02410441       0.00000000 </v>
   <v>       0.17450027      -0.05167081       0.00000000 </v>
   <v>       1.40384440       1.19382770       0.00000000 </v>
   <v>      -1.36857122       1.24430214       0.00000000 </v>
   <v>      -0.08892574       0.04101320       0.00000000 </v>
   <v>      -0.04778825      -0.00788387       0.00000000 </v>
   <v>      -0.01469099      -0.00362156       0.00000000 </v>
   <v>       0.00854577      -0.00219707      -0.00000000 </v>
   <v>       0.03401613      -0.00434956       0.00000000 </v>
   <v>       0.15989854       0.04540270       0.00000000 </v>
   <v>       0.00981068      -0.25501995       0.00000000 </v>
   <v>      -0.15095444       0.03584908       0.00000000 </v>
   <v>       0.02582356       0.03143633       0.00000000 </v>
   <v>       0.01077122       0.02187084      -0.00000000 </v>
   <v>       0.00120698       0.02532027      -0.00000000 </v>
   <v>      -0.00897290       0.02042770      -0.00000000 </v>
   <v>      -0.02614138       0.02881627       0.00000000 </v>
   <v>      -0.01368635       0.02480809       0.00000000 </v>
   <v>       0.01103778       0.02620787       0.00000000 </v>
   <v>       0.01499691       0.03469174      -0.00000000 </v>
   <v>      -0.00992003       0.00143774      -0.00000000 </v>
   <v>       0.01602430       0.03284919       0.00000000 </v>
   <v>      -0.01423730       0.03289103      -0.00000000 </v>
   <v>       0.00987662       0.00115203      -0.00000000 </v>
   <v>      -0.01603093       0.03386649      -0.00000000 </v>
   <v>      -0.00071276       0.03032078       0.00000000 </v>
   <v>       0.01012303       0.02656344       0.00000000 </v>
   <v>       0.04457516       0.05853390      -0.00000000 </v>
   <v>      -0.02426596      -0.20506355       0.00000000 </v>
   <v>       0.00247596       0.10431390      -0.00000000 </v>
   <v>       0.02461721      -0.20229246      -0.00000000 </v>
   <v>      -0.04644110       0.05843822       0.00000000 </v>
   <v>      -0.01074888       0.02597339       0.00000000 </v>
   <v>       0.00076310       0.01016756       0.00000000 </v>
   <v>       0.02415738      -0.00318954      -0.00000000 </v>
   <v>       0.16786529       0.10702036       0.00000000 </v>
   <v>       1.04327053      -1.60527247      -0.00000000 </v>
   <v>      -1.01609678      -1.56680654       0.00000000 </v>
   <v>      -0.18741877       0.11221135       0.00000000 </v>
   <v>      -0.02433127      -0.00697645       0.00000000 </v>
   <v>       0.01160690      -0.03250907      -0.00000000 </v>
   <v>      -0.00643413      -0.03094530      -0.00000000 </v>
   <v>      -0.04024078      -0.05230889       0.00000000 </v>
   <v>      -0.45282887       0.44749471       0.00000000 </v>
   <v>       0.27468464       0.01247471       0.00000000 </v>
   <v>       0.06092828      -0.06568977       0.00000000 </v>
   <v>       0.03773125      -0.01270221       0.00000000 </v>
   <v>       0.00276774      -0.01124075       0.00000000 </v>
   <v>      -0.02984123      -0.01418236       0.00000000 </v>
   <v>      -0.06107391      -0.04790191      -0.00000000 </v>
   <v>      -0.91672224       0.22274574      -0.00000000 </v>
   <v>       0.88620162       0.24989960       0.00000000 </v>
   <v>       0.08589388      -0.01203475       0.00000000 </v>
   <v>       0.03201182       0.01697395      -0.00000000 </v>
   <v>       0.01133588      -0.00449288       0.00000000 </v>
   <v>      -0.00746862      -0.00561849       0.00000000 </v>
   <v>      -0.02816537       0.01137481      -0.00000000 </v>
   <v>      -0.11281065       0.11271382       0.00000000 </v>
   <v>      -0.00444354       0.01440088       0.00000000 </v>
   <v>       0.10968016       0.11985362       0.00000000 </v>
   <v>      -0.00829048      -0.12154509       0.00000000 </v>
  </varray>
  <varray name="stress" >
   <v>     -10.63106154       0.00498936       0.00000000 </v>
   <v>       0.00498936       3.07429576       0.00000000 </v>
   <v>       0.00000000       0.00000000      -0.42557566 </v>
  </varray>
  <energy>
   <i name="e_fr_energy">   -845.65182275 </i>
   <i name="e_wo_entrp">   -845.65182275 </i>
   <i name="e_0_energy">     -0.00000000 </i>
  </energy>
  <time name="totalsc">  103.57  106.83</time>
  <eigenvalues>
   <array>
    <dimension dim="1">band</dimension>
    <dimension dim="2">kpoint</dimension>
    <dimension dim="3">spin</dimension>
    <field>eigene</field>
    <field>occ</field>
    <set>
     <set comment="spin 1">
      <set comment="kpoint 1">
       <r>  -22.5332    1.0000 </r>
       <r>  -22.0201    1.0000 </r>
       <r>  -21.7718    1.0000 </r>
       <r>  -21.7441    1.0000 </r>
       <r>  -21.6975    1.0000 </r>
       <r>  -21.6557    1.0000 </r>
       <r>  -21.6181    1.0000 </r>
       <r>  -21.2355    1.0000 </r>
       <r>  -21.0686    1.0000 </r>
       <r>  -21.0042    1.0000 </r>
       <r>  -20.9696    1.0000 </r>
       <r>  -20.9268    1.0000 </r>
       <r>  -20.8763    1.0000 </r>
       <r>  -20.7450    1.0000 </r>
       <r>  -20.7023    1.0000 </r>
       <r>  -20.6647    1.0000 </r>
       <r>  -20.5951    1.0000 </r>
       <r>  -20.5681    1.0000 </r>
       <r>  -20.4276    1.0000 </r>
       <r>  -19.9772    1.0000 </r>
       <r>  -19.9236    1.0000 </r>
       <r>  -19.8026    1.0000 </r>
       <r>  -19.7627    1.0000 </r>
       <r>  -19.7371    1.0000 </r>
       <r>  -19.7362    1.0000 </r>
       <r>  -19.7074    1.0000 </r>
       <r>  -19.6996    1.0000 </r>
       <r>  -19.6449    1.0000 </r>
       <r>  -19.6398    1.0000 </r>
       <r>  -19.6291    1.0000 </r>
       <r>  -19.4937    1.0000 </r>
       <r>  -19.4074    1.0000 </r>
       <r>  -19.3648    1.0000 </r>
       <r>  -19.3567    1.0000 </r>
       <r>  -19.2907    1.0000 </r>
       <r>  -19.2403    1.0000 </r>
       <r>  -19.1085    1.0000 </r>
       <r>  -18.9988    1.0000 </r>
       <r>  -18.9316    1.0000 </r>
       <r>  -18.8762    1.0000 </r>
       <r>  -18.8541    1.0000 </r>
       <r>  -18.8378    1.0000 </r>
       <r>  -18.7682    1.0000 </r>
       <r>  -18.7508    1.0000 </r>
       <r>  -18.7285    1.0000 </r>
       <r>  -18.7155    1.0000 </r>
       <r>  -18.6959    1.0000 </r>
       <r>  -18.4485    1.0000 </r>
       <r>  -14.1325    1.0000 </r>
       <r>  -13.1794    1.0000 </r>
       <r>  -13.1557    1.0000 </r>
       <r>  -13.1094    1.0000 </r>
       <r>  -13.1029    1.0000 </r>
       <r>  -13.0799    1.0000 </r>
       <r>  -13.0173    1.0000 </r>
       <r>  -12.9594    1.0000 </r>
       <r>  -12.9511    1.0000 </r>
       <r>  -12.9362    1.0000 </r>
       <r>  -12.8067    1.0000 </r>
       <r>  -12.7679    1.0000 </r>
       <r>  -12.6024    1.0000 </r>
       <r>  -12.5025    1.0000 </r>
       <r>  -12.4852    1.0000 </r>
       <r>  -12.3789    1.0000 </r>
       <r>  -12.3093    1.0000 </r>
       <r>  -12.2973    1.0000 </r>
       <r>  -12.1753    1.0000 </r>
       <r>  -11.9006    1.0000 </r>
       <r>  -11.8850    1.0000 </r>
       <r>  -11.7675    1.0000 </r>
       <r>  -11.7646    1.0000 </r>
       <r>  -11.7518    1.0000 </r>
       <r>  -11.7423    1.0000 </r>
       <r>  -11.6972    1.0000 </r>
       <r>  -11.6576    1.0000 </r>
       <r>  -11.6341    1.0000 </r>
       <r>  -11.5405    1.0000 </r>
       <r>  -11.4187    1.0000 </r>
       <r>  -11.1988    1.0000 </r>
       <r>  -11.1236    1.0000 </r>
       <r>  -11.0850    1.0000 </r>
       <r>  -11.0592    1.0000 </r>
       <r>  -10.9663    1.0000 </r>
       <r>  -10.9126    1.0000 </r>
       <r>  -10.6825    1.0000 </r>
       <r>  -10.4607    1.0000 </r>
       <r>  -10.4313    1.0000 </r>
       <r>  -10.3507    1.0000 </r>
       <r>  -10.2568    1.0000 </r>
       <r>  -10.2049    1.0000 </r>
       <r>   -9.8869    1.0000 </r>
       <r>   -9.7693    1.0000 </r>
       <r>   -9.7645    1.0000 </r>
       <r>   -9.7229    1.0000 </r>
       <r>   -9.6773    1.0000 </r>
       <r>   -9.5865    1.0000 </r>
       <r>   -9.5422    1.0000 </r>
       <r>   -9.4971    1.0000 </r>
       <r>   -9.4629    1.0000 </r>
       <r>   -9.3497    1.0000 </r>
       <r>   -9.3463    1.0000 </r>
       <r>   -9.2878    1.0000 </r>
       <r>   -9.2637    1.0000 </r>
       <r>   -9.2573    1.0000 </r>
       <r>   -9.2507    1.0000 </r>
       <r>   -9.2381    1.0000 </r>
       <r>   -9.2241    1.0000 </r>
       <r>   -9.2222    1.0000 </r>
       <r>   -9.2079    1.0000 </r>
       <r>   -9.2038    1.0000 </r>
       <r>   -9.1995    1.0000 </r>
       <r>   -9.1994    1.0000 </r>
       <r>   -9.1565    1.0000 </r>
       <r>   -9.1323    1.0000 </r>
       <r>   -9.1127    1.0000 </r>
       <r>   -9.1108    1.0000 </r>
       <r>   -9.1009    1.0000 </r>
       <r>   -9.0455    1.0000 </r>
       <r>   -8.9935    1.0000 </r>
       <r>   -8.8447    1.0000 </r>
       <r>   -8.7962    1.0000 </r>
       <r>   -8.6528    1.0000 </r>
       <r>   -8.5062    1.0000 </r>
       <r>   -8.4818    1.0000 </r>
       <r>   -8.4433    1.0000 </r>
       <r>   -8.3259    1.0000 </r>
       <r>   -8.2230    1.0000 </r>
       <r>   -8.1993    1.0000 </r>
       <r>   -8.1977    1.0000 </r>
       <r>   -8.1713    1.0000 </r>
       <r>   -8.1510    1.0000 </r>
       <r>   -8.1227    1.0000 </r>
       <r>   -8.0388    1.0000 </r>
       <r>   -7.9692    1.0000 </r>
       <r>   -7.9501    1.0000 </r>
       <r>   -7.8729    1.0000 </r>
       <r>   -7.8490    1.0000 </r>
       <r>   -7.8463    1.0000 </r>
       <r>   -7.8016    1.0000 </r>
       <r>   -7.8002    1.0000 </r>
       <r>   -7.7979    1.0000 </r>
       <r>   -7.7374    1.0000 </r>
       <r>   -7.7351    1.0000 </r>
       <r>   -7.7125    1.0000 </r>
       <r>   -7.6782    1.0000 </r>
       <r>   -7.6717    1.0000 </r>
       <r>   -7.6645    1.0000 </r>
       <r>   -7.6380    1.0000 </r>
       <r>   -7.6344    1.0000 </r>
       <r>   -7.4417    1.0000 </r>
       <r>   -7.4378    1.0000 </r>
       <r>   -7.4303    1.0000 </r>
       <r>   -7.3867    1.0000 </r>
       <r>   -7.3603    1.0000 </r>
       <r>   -7.2770    1.0000 </r>
       <r>   -6.8308    1.0000 </r>
       <r>   -6.7600    1.0000 </r>
       <r>   -6.6217    1.0000 </r>
       <r>   -6.6047    1.0000 </r>
       <r>   -6.5403    1.0000 </r>
       <r>   -6.5400    1.0000 </r>
       <r>   -6.5034    1.0000 </r>
       <r>   -6.4878    1.0000 </r>
       <r>   -6.4604    1.0000 </r>
       <r>   -6.4570    1.0000 </r>
       <r>   -6.4410    1.0000 </r>
       <r>   -6.4401    1.0000 </r>
       <r>   -6.4108    1.0000 </r>
       <r>   -6.4057    1.0000 </r>
       <r>   -6.3605    1.0000 </r>
       <r>   -6.3464    1.0000 </r>
       <r>   -6.3169    1.0000 </r>
       <r>   -6.1117    1.0000 </r>
       <r>   -5.9707    1.0000 </r>
       <r>   -5.9277    1.0000 </r>
       <r>   -5.8856    1.0000 </r>
       <r>   -5.8795    1.0000 </r>
       <r>   -5.8627    1.0000 </r>
       <r>   -5.7821    1.0000 </r>
       <r>   -5.7802    1.0000 </r>
       <r>   -5.5277    1.0000 </r>
       <r>   -5.2195    1.0000 </r>
       <r>   -5.1974    1.0000 </r>
       <r>   -5.1862    1.0000 </r>
       <r>   -5.1407    1.0000 </r>
       <r>   -5.1328    1.0000 </r>
       <r>   -5.1043    1.0000 </r>
       <r>   -5.0011    1.0000 </r>
       <r>   -4.9441    1.0000 </r>
       <r>   -4.9190    1.0000 </r>
       <r>   -4.9076    1.0000 </r>
       <r>   -4.9000    1.0000 </r>
       <r>   -4.7340    1.0000 </r>
       <r>   -1.3095    1.0000 </r>
       <r>   -1.1988    0.0000 </r>
       <r>    0.0633    0.0000 </r>
       <r>    0.2050    0.0000 </r>
       <r>    0.2417    0.0000 </r>
       <r>    0.2582    0.0000 </r>
       <r>    0.2599    0.0000 </r>
       <r>    0.3030    0.0000 </r>
       <r>    0.3044    0.0000 </r>
       <r>    0.3769    0.0000 </r>
       <r>    0.3916    0.0000 </r>
       <r>    0.4361    0.0000 </r>
       <r>    0.4796    0.0000 </r>
       <r>    0.5259    0.0000 </r>
       <r>    0.6100    0.0000 </r>
       <r>    0.7431    0.0000 </r>
       <r>    0.7478    0.0000 </r>
       <r>    0.7796    0.0000 </r>
       <r>    0.8070    0.0000 </r>
       <r>    0.8125    0.0000 </r>
       <r>    0.8282    0.0000 </r>
       <r>    0.8378    0.0000 </r>
       <r>    0.8574    0.0000 </r>
       <r>    0.8710    0.0000 </r>
       <r>    0.9801    0.0000 </r>
       <r>    1.0200    0.0000 </r>
       <r>    1.0623    0.0000 </r>
       <r>    1.1189    0.0000 </r>
       <r>    1.4953    0.0000 </r>
       <r>    1.6739    0.0000 </r>
       <r>    1.6977    0.0000 </r>
       <r>    1.7063    0.0000 </r>
       <r>    1.7235    0.0000 </r>
       <r>    1.7390    0.0000 </r>
       <r>    1.7438    0.0000 </r>
       <r>    1.8049    0.0000 </r>
       <r>    1.8088    0.0000 </r>
       <r>    1.8449    0.0000 </r>
       <r>    1.8466    0.0000 </r>
       <r>    1.8784    0.0000 </r>
       <r>    1.8806    0.0000 </r>
       <r>    1.9047    0.0000 </r>
       <r>    1.9094    0.0000 </r>
       <r>    1.9303    0.0000 </r>
       <r>    1.9818    0.0000 </r>
       <r>    2.0316    0.0000 </r>
       <r>    2.1051    0.0000 </r>
       <r>    2.1070    0.0000 </r>
       <r>    2.1289    0.0000 </r>
       <r>    2.1348    0.0000 </r>
       <r>    2.1406    0.0000 </r>
      </set>
     </set>
    </set>
   </array>
  </eigenvalues>
  <separator name="orbital magnetization" >
   <v name="MAGDIPOLOUT">      0.00000000      0.00000000      0.00000000</v>
  </separator>
  <dos>
   <i name="efermi">     -1.25105622 </i>
   <total>
    <array>
     <dimension dim="1">gridpoints</dimension>
     <dimension dim="2">spin</dimension>
     <field>energy</field>
     <field>total</field>
     <field>integrated</field>
     <set>
      <set comment="spin 1">
       <r>   -23.7669     0.0000     0.0000 </r>
       <r>   -23.6764     0.0000     0.0000 </r>
       <r>   -23.5859     0.0000     0.0000 </r>
       <r>   -23.4954     0.0000     0.0000 </r>
       <r>   -23.4050     0.0000     0.0000 </r>
       <r>   -23.3145     0.0000     0.0000 </r>
       <r>   -23.2240     0.0000     0.0000 </r>
       <r>   -23.1336     0.0000     0.0000 </r>
       <r>   -23.0431     0.0000     0.0000 </r>
       <r>   -22.9526     0.0000     0.0000 </r>
       <r>   -22.8622     0.0000     0.0000 </r>
       <r>   -22.7717     0.0000     0.0000 </r>
       <r>   -22.6812     0.0000     0.0000 </r>
       <r>   -22.5907     0.0000     0.0000 </r>
       <r>   -22.5003    22.1067     2.0000 </r>
       <r>   -22.4098     0.0000     2.0000 </r>
       <r>   -22.3193     0.0000     2.0000 </r>
       <r>   -22.2289     0.0000     2.0000 </r>
       <r>   -22.1384     0.0000     2.0000 </r>
       <r>   -22.0479     0.0009     2.0001 </r>
       <r>   -21.9574    22.1058     4.0000 </r>
       <r>   -21.8670     0.0000     4.0000 </r>
       <r>   -21.7765     5.6018     4.5068 </r>
       <r>   -21.6860    43.0440     9.8942 </r>
       <r>   -21.5956    44.1977    13.9986 </r>
       <r>   -21.5051     0.0000    14.0000 </r>
       <r>   -21.4146     0.0000    14.0000 </r>
       <r>   -21.3242     0.0000    14.0000 </r>
       <r>   -21.2337    13.3212    15.2052 </r>
       <r>   -21.1432     0.0000    16.0000 </r>
       <r>   -21.0527    21.8262    17.9746 </r>
       <r>   -20.9623    40.8990    21.7001 </r>
       <r>   -20.8718    38.3755    25.4718 </r>
       <r>   -20.7813     0.0000    26.0000 </r>
       <r>   -20.6909    43.0580    29.8955 </r>
       <r>   -20.6004    27.1078    32.4527 </r>
       <r>   -20.5099    22.1066    36.0000 </r>
       <r>   -20.4195    19.3713    37.7525 </r>
       <r>   -20.3290     0.0000    38.0000 </r>
       <r>   -20.2385     0.0000    38.0000 </r>
       <r>   -20.1480     0.0000    38.0000 </r>
       <r>   -20.0576     0.0000    38.0000 </r>
       <r>   -19.9671    20.3970    39.8453 </r>
       <r>   -19.8766    22.1067    42.0000 </r>
       <r>   -19.7862    21.8956    43.9809 </r>
       <r>   -19.6957   103.0290    53.3220 </r>
       <r>   -19.6052    66.3121    59.9993 </r>
       <r>   -19.5148     0.0327    60.0030 </r>
       <r>   -19.4243    22.2641    62.0172 </r>
       <r>   -19.3338    66.1162    67.9988 </r>
       <r>   -19.2433    29.5253    70.6712 </r>
       <r>   -19.1529     0.0000    72.0000 </r>
       <r>   -19.0624    22.1067    74.0000 </r>
       <r>   -18.9719    22.1051    75.9999 </r>
       <r>   -18.8815    27.1579    78.4570 </r>
       <r>   -18.7910    44.2264    84.0013 </r>
       <r>   -18.7005    93.7377    92.4818 </r>
       <r>   -18.6100     0.0000    94.0000 </r>
       <r>   -18.5196     0.0000    94.0000 </r>
       <r>   -18.4291    22.0397    95.9939 </r>
       <r>   -18.3386     0.0000    96.0000 </r>
       <r>   -18.2482     0.0000    96.0000 </r>
       <r>   -18.1577     0.0000    96.0000 </r>
       <r>   -18.0672     0.0000    96.0000 </r>
       <r>   -17.9768     0.0000    96.0000 </r>
       <r>   -17.8863     0.0000    96.0000 </r>
       <r>   -17.7958     0.0000    96.0000 </r>
       <r>   -17.7053     0.0000    96.0000 </r>
       <r>   -17.6149     0.0000    96.0000 </r>
       <r>   -17.5244     0.0000    96.0000 </r>
       <r>   -17.4339     0.0000    96.0000 </r>
       <r>   -17.3435     0.0000    96.0000 </r>
       <r>   -17.2530     0.0000    96.0000 </r>
       <r>   -17.1625     0.0000    96.0000 </r>
       <r>   -17.0721     0.0000    96.0000 </r>
       <r>   -16.9816     0.0000    96.0000 </r>
       <r>   -16.8911     0.0000    96.0000 </r>
       <r>   -16.8006     0.0000    96.0000 </r>
       <r>   -16.7102     0.0000    96.0000 </r>
       <r>   -16.6197     0.0000    96.0000 </r>
       <r>   -16.5292     0.0000    96.0000 </r>
       <r>   -16.4388     0.0000    96.0000 </r>
       <r>   -16.3483     0.0000    96.0000 </r>
       <r>   -16.2578     0.0000    96.0000 </r>
       <r>   -16.1673     0.0000    96.0000 </r>
       <r>   -16.0769     0.0000    96.0000 </r>
       <r>   -15.9864     0.0000    96.0000 </r>
       <r>   -15.8959     0.0000    96.0000 </r>
       <r>   -15.8055     0.0000    96.0000 </r>
       <r>   -15.7150     0.0000    96.0000 </r>
       <r>   -15.6245     0.0000    96.0000 </r>
       <r>   -15.5341     0.0000    96.0000 </r>
       <r>   -15.4436     0.0000    96.0000 </r>
       <r>   -15.3531     0.0000    96.0000 </r>
       <r>   -15.2626     0.0000    96.0000 </r>
       <r>   -15.1722     0.0000    96.0000 </r>
       <r>   -15.0817     0.0000    96.0000 </r>
       <r>   -14.9912     0.0000    96.0000 </r>
       <r>   -14.9008     0.0000    96.0000 </r>
       <r>   -14.8103     0.0000    96.0000 </r>
       <r>   -14.7198     0.0000    96.0000 </r>
       <r>   -14.6294     0.0000    96.0000 </r>
       <r>   -14.5389     0.0000    96.0000 </r>
       <r>   -14.4484     0.0000    96.0000 </r>
       <r>   -14.3579     0.0000    96.0000 </r>
       <r>   -14.2675     0.0000    96.0000 </r>
       <r>   -14.1770     0.0000    96.0000 </r>
       <r>   -14.0865    22.1067    98.0000 </r>
       <r>   -13.9961     0.0000    98.0000 </r>
       <r>   -13.9056     0.0000    98.0000 </r>
       <r>   -13.8151     0.0000    98.0000 </r>
       <r>   -13.7247     0.0000    98.0000 </r>
       <r>   -13.6342     0.0000    98.0000 </r>
       <r>   -13.5437     0.0000    98.0000 </r>
       <r>   -13.4532     0.0000    98.0000 </r>
       <r>   -13.3628     0.0000    98.0000 </r>
       <r>   -13.2723     0.0000    98.0000 </r>
       <r>   -13.1818     8.1095    98.7337 </r>
       <r>   -13.0914    66.2195   105.9911 </r>
       <r>   -13.0009    42.8373   109.9800 </r>
       <r>   -12.9104    66.3172   115.9997 </r>
       <r>   -12.8199     0.6776   116.0613 </r>
       <r>   -12.7295    43.5358   120.0000 </r>
       <r>   -12.6390     0.0000   120.0000 </r>
       <r>   -12.5485    22.1067   122.0000 </r>
       <r>   -12.4581    44.2121   125.9999 </r>
       <r>   -12.3676    20.8912   127.8900 </r>
       <r>   -12.2771    44.1657   131.9957 </r>
       <r>   -12.1867     1.1967   132.1083 </r>
       <r>   -12.0962    20.9100   134.0000 </r>
       <r>   -12.0057     0.0000   134.0000 </r>
       <r>   -11.9152     0.4196   134.0380 </r>
       <r>   -11.8248    43.7937   138.0000 </r>
       <r>   -11.7343    85.4544   145.7311 </r>
       <r>   -11.6438    45.4907   150.1156 </r>
       <r>   -11.5534     0.7624   152.0690 </r>
       <r>   -11.4629    21.3443   154.0000 </r>
       <r>   -11.3724    22.1067   156.0000 </r>
       <r>   -11.2820     0.0000   156.0000 </r>
       <r>   -11.1915    18.7642   157.6976 </r>
       <r>   -11.1010    22.3562   160.0226 </r>
       <r>   -11.0105    43.9488   164.0000 </r>
       <r>   -10.9201    25.3493   166.2934 </r>
       <r>   -10.8296     0.0000   168.0000 </r>
       <r>   -10.7391     0.0000   168.0000 </r>
       <r>   -10.6487    22.1067   170.0000 </r>
       <r>   -10.5582     0.0000   170.0000 </r>
       <r>   -10.4677     3.5322   170.3196 </r>
       <r>   -10.3772    22.1086   174.0002 </r>
       <r>   -10.2868    22.1051   176.0000 </r>
       <r>   -10.1963    41.7271   179.7751 </r>
       <r>   -10.1058     0.0000   180.0000 </r>
       <r>   -10.0154     0.0000   180.0000 </r>
       <r>    -9.9249     0.0000   180.0000 </r>
       <r>    -9.8344    22.1067   182.0000 </r>
       <r>    -9.7440    44.2023   185.9990 </r>
       <r>    -9.6535    44.1725   189.9993 </r>
       <r>    -9.5630    22.1324   192.0023 </r>
       <r>    -9.4725    46.0613   196.1704 </r>
       <r>    -9.3821     0.0001   198.0000 </r>
       <r>    -9.2916    50.7065   202.5874 </r>
       <r>    -9.2011   183.2023   220.5744 </r>
       <r>    -9.1107    70.8264   230.4077 </r>
       <r>    -9.0202    22.1045   235.9998 </r>
       <r>    -8.9297    22.1050   238.0000 </r>
       <r>    -8.8393    17.1939   239.5555 </r>
       <r>    -8.7488    22.1067   242.0000 </r>
       <r>    -8.6583     4.8338   242.4373 </r>
       <r>    -8.5678     0.0000   244.0000 </r>
       <r>    -8.4774    38.3104   247.4660 </r>
       <r>    -8.3869    22.1067   250.0000 </r>
       <r>    -8.2964    22.1064   252.0000 </r>
       <r>    -8.2060    28.4225   254.5714 </r>
       <r>    -8.1155    62.9140   263.6918 </r>
       <r>    -8.0250    21.5353   265.9483 </r>
       <r>    -7.9346    43.9096   269.9725 </r>
       <r>    -7.8441    52.5580   274.7549 </r>
       <r>    -7.7536    66.6605   282.0308 </r>
       <r>    -7.6631   120.0407   292.8909 </r>
       <r>    -7.5727    44.2087   298.0000 </r>
       <r>    -7.4822     0.0000   298.0000 </r>
       <r>    -7.3917    71.6268   304.4801 </r>
       <r>    -7.3013    22.1133   308.0006 </r>
       <r>    -7.2108    22.1001   310.0000 </r>
       <r>    -7.1203     0.0000   310.0000 </r>
       <r>    -7.0298     0.0000   310.0000 </r>
       <r>    -6.9394     0.0000   310.0000 </r>
       <r>    -6.8489     0.1157   310.0105 </r>
       <r>    -6.7584    35.0244   313.1791 </r>
       <r>    -6.6680     0.0000   314.0000 </r>
       <r>    -6.5775    44.2120   317.9999 </r>
       <r>    -6.4870    78.1067   325.0663 </r>
       <r>    -6.3966   129.9796   337.7595 </r>
       <r>    -6.3061    64.9095   343.8724 </r>
       <r>    -6.2156     0.0000   344.0000 </r>
       <r>    -6.1251     0.6287   344.0569 </r>
       <r>    -6.0347    21.4780   346.0000 </r>
       <r>    -5.9442    22.3185   348.0192 </r>
       <r>    -5.8537    85.9297   355.7934 </r>
       <r>    -5.7633    43.9438   359.9756 </r>
       <r>    -5.6728     0.0000   360.0000 </r>
       <r>    -5.5823     0.0000   360.0000 </r>
       <r>    -5.4919    22.1067   362.0000 </r>
       <r>    -5.4014     0.0000   362.0000 </r>
       <r>    -5.3109     0.0000   362.0000 </r>
       <r>    -5.2204     9.9426   362.8995 </r>
       <r>    -5.1300    79.3751   371.1822 </r>
       <r>    -5.0395    22.1036   374.0000 </r>
       <r>    -4.9490    27.5151   376.4893 </r>
       <r>    -4.8586    66.3199   384.0000 </r>
       <r>    -4.7681     0.0000   384.0000 </r>
       <r>    -4.6776    22.1067   386.0000 </r>
       <r>    -4.5871     0.0000   386.0000 </r>
       <r>    -4.4967     0.0000   386.0000 </r>
       <r>    -4.4062     0.0000   386.0000 </r>
       <r>    -4.3157     0.0000   386.0000 </r>
       <r>    -4.2253     0.0000   386.0000 </r>
       <r>    -4.1348     0.0000   386.0000 </r>
       <r>    -4.0443     0.0000   386.0000 </r>
       <r>    -3.9539     0.0000   386.0000 </r>
       <r>    -3.8634     0.0000   386.0000 </r>
       <r>    -3.7729     0.0000   386.0000 </r>
       <r>    -3.6824     0.0000   386.0000 </r>
       <r>    -3.5920     0.0000   386.0000 </r>
       <r>    -3.5015     0.0000   386.0000 </r>
       <r>    -3.4110     0.0000   386.0000 </r>
       <r>    -3.3206     0.0000   386.0000 </r>
       <r>    -3.2301     0.0000   386.0000 </r>
       <r>    -3.1396     0.0000   386.0000 </r>
       <r>    -3.0492     0.0000   386.0000 </r>
       <r>    -2.9587     0.0000   386.0000 </r>
       <r>    -2.8682     0.0000   386.0000 </r>
       <r>    -2.7777     0.0000   386.0000 </r>
       <r>    -2.6873     0.0000   386.0000 </r>
       <r>    -2.5968     0.0000   386.0000 </r>
       <r>    -2.5063     0.0000   386.0000 </r>
       <r>    -2.4159     0.0000   386.0000 </r>
       <r>    -2.3254     0.0000   386.0000 </r>
       <r>    -2.2349     0.0000   386.0000 </r>
       <r>    -2.1445     0.0000   386.0000 </r>
       <r>    -2.0540     0.0000   386.0000 </r>
       <r>    -1.9635     0.0000   386.0000 </r>
       <r>    -1.8730     0.0000   386.0000 </r>
       <r>    -1.7826     0.0000   386.0000 </r>
       <r>    -1.6921     0.0000   386.0000 </r>
       <r>    -1.6016     0.0000   386.0000 </r>
       <r>    -1.5112     0.0000   386.0000 </r>
       <r>    -1.4207     0.0000   386.0000 </r>
       <r>    -1.3302     0.0370   386.0033 </r>
       <r>    -1.2397    22.0697   388.0000 </r>
       <r>    -1.1493    22.1067   390.0000 </r>
       <r>    -1.0588     0.0000   390.0000 </r>
       <r>    -0.9683     0.0000   390.0000 </r>
       <r>    -0.8779     0.0000   390.0000 </r>
       <r>    -0.7874     0.0000   390.0000 </r>
       <r>    -0.6969     0.0000   390.0000 </r>
       <r>    -0.6065     0.0000   390.0000 </r>
       <r>    -0.5160     0.0000   390.0000 </r>
       <r>    -0.4255     0.0000   390.0000 </r>
       <r>    -0.3350     0.0000   390.0000 </r>
       <r>    -0.2446     0.0000   390.0000 </r>
       <r>    -0.1541     0.0000   390.0000 </r>
       <r>    -0.0636     0.0000   390.0000 </r>
       <r>     0.0268     0.0000   390.0000 </r>
       <r>     0.1173    22.1067   392.0000 </r>
       <r>     0.2078    14.4150   393.3041 </r>
       <r>     0.2982    76.1407   400.8885 </r>
       <r>     0.3887    28.6564   406.5926 </r>
       <r>     0.4792    32.6499   410.9538 </r>
       <r>     0.5697    22.1067   414.0000 </r>
       <r>     0.6601    22.1067   416.0000 </r>
       <r>     0.7506    33.3450   419.0167 </r>
       <r>     0.8411   102.9379   429.3129 </r>
       <r>     0.9315    43.9807   434.0000 </r>
       <r>     1.0220    35.6346   437.2239 </r>
       <r>     1.1125    26.1683   440.3675 </r>
       <r>     1.2030     0.0000   442.0000 </r>
       <r>     1.2934     0.0000   442.0000 </r>
       <r>     1.3839     0.0000   442.0000 </r>
       <r>     1.4744     0.0346   442.0031 </r>
       <r>     1.5648    22.0721   444.0000 </r>
       <r>     1.6553     0.0935   444.0085 </r>
       <r>     1.7458   120.2226   454.8850 </r>
       <r>     1.8362    48.2209   460.3626 </r>
       <r>     1.9267    94.9618   472.5912 </r>
       <r>     2.0172    22.5652   476.0415 </r>
       <r>     2.1077    47.7189   480.3586 </r>
       <r>     2.1981    66.2891   488.0000 </r>
       <r>     2.2886     0.0000   488.0000 </r>
       <r>     2.3791     0.0000   488.0000 </r>
       <r>     2.4695     0.0000   488.0000 </r>
       <r>     2.5600     0.0000   488.0000 </r>
       <r>     2.6505     0.0000   488.0000 </r>
       <r>     2.7409     0.0000   488.0000 </r>
       <r>     2.8314     0.0000   488.0000 </r>
       <r>     2.9219     0.0000   488.0000 </r>
       <r>     3.0124     0.0000   488.0000 </r>
       <r>     3.1028     0.0000   488.0000 </r>
       <r>     3.1933     0.0000   488.0000 </r>
       <r>     3.2838     0.0000   488.0000 </r>
       <r>     3.3742     0.0000   488.0000 </r>
      </set>
     </set>
    </array>
   </total>
  </dos>
 </calculation>
 <structure name="finalpos" >
  <crystal>
   <varray name="basis" >
    <v>      17.59966831       0.00000000       0.00000000 </v>
    <v>      -8.79983416      15.24175986       0.00000000 </v>
    <v>       0.00000000       0.00000000      19.92151445 </v>
   </varray>
   <i name="volume">   5343.94461817 </i>
   <varray name="rec_basis" >
    <v>       0.05681925       0.03280461       0.00000000 </v>
    <v>       0.00000000       0.06560922       0.00000000 </v>
    <v>       0.00000000       0.00000000       0.05019699 </v>
   </varray>
  </crystal>
  <varray name="positions" >
   <v>       0.99943010       0.00005992       0.50000000 </v>
   <v>       0.14164706       0.99871895       0.50000000 </v>
   <v>       0.28492260       0.99841663       0.50000000 </v>
   <v>       0.42850047       0.99871895       0.50000000 </v>
   <v>       0.57205839       0.00005992       0.50000000 </v>
   <v>       0.71530655       0.00214292       0.50000000 </v>
   <v>       0.85826494       0.00214292       0.50000000 </v>
   <v>       0.00080792       0.14408264       0.50000000 </v>
   <v>       0.14259355       0.14244783       0.50000000 </v>
   <v>       0.28470221       0.14112972       0.50000000 </v>
   <v>       0.42785608       0.14112972       0.50000000 </v>
   <v>       0.57128286       0.14244783       0.50000000 </v>
   <v>       0.71470329       0.14408264       0.50000000 </v>
   <v>       0.85805263       0.14467669       0.50000000 </v>
   <v>       0.00095476       0.28713011       0.50000000 </v>
   <v>       0.14372552       0.28645370       0.50000000 </v>
   <v>       0.28540977       0.28469374       0.50000000 </v>
   <v>       0.42724431       0.28306005       0.50000000 </v>
   <v>       0.57071254       0.28469374       0.50000000 </v>
   <v>       0.71415674       0.28645370       0.50000000 </v>
   <v>       0.85760392       0.28713011       0.50000000 </v>
   <v>       0.00054479       0.42966101       0.50000000 </v>
   <v>       0.14422690       0.42957551       0.50000000 </v>
   <v>       0.28730213       0.42918005       0.50000000 </v>
   <v>       0.42797654       0.42569726       0.50000000 </v>
   <v>       0.56914930       0.42569726       0.50000000 </v>
   <v>       0.71330650       0.42918005       0.50000000 </v>
   <v>       0.85677719       0.42957551       0.50000000 </v>
   <v>       0.99928255       0.57181462       0.50000000 </v>
   <v>       0.14396064       0.57181462       0.50000000 </v>
   <v>       0.28862787       0.57181625       0.50000000 </v>
   <v>       0.43313209       0.57215564       0.50000000 </v>
   <v>       0.71045212       0.57215564       0.50000000 </v>
   <v>       0.85461695       0.57181625       0.50000000 </v>
   <v>       0.99707234       0.71370518       0.50000000 </v>
   <v>       0.14255519       0.71368182       0.50000000 </v>
   <v>       0.28806142       0.71370518       0.50000000 </v>
   <v>       0.43464191       0.71382540       0.50000000 </v>
   <v>       0.58510826       0.71626937       0.50000000 </v>
   <v>       0.70258968       0.71626937       0.50000000 </v>
   <v>       0.85061206       0.71382540       0.50000000 </v>
   <v>       0.99777175       0.85613493       0.50000000 </v>
   <v>       0.14160898       0.85591288       0.50000000 </v>
   <v>       0.28573247       0.85591288       0.50000000 </v>
   <v>       0.42979175       0.85613493       0.50000000 </v>
   <v>       0.57342541       0.85758690       0.50000000 </v>
   <v>       0.71640633       0.86138410       0.50000000 </v>
   <v>       0.85559006       0.85758690       0.50000000 </v>
   <v>       0.04754270       0.09547788       0.50000000 </v>
   <v>       0.18957833       0.09405657       0.50000000 </v>
   <v>       0.33254182       0.09365506       0.50000000 </v>
   <v>       0.47590681       0.09405657       0.50000000 </v>
   <v>       0.61936376       0.09547788       0.50000000 </v>
   <v>       0.76280004       0.09719274       0.50000000 </v>
   <v>       0.90582126       0.09719274       0.50000000 </v>
   <v>       0.04854983       0.23934281       0.50000000 </v>
   <v>       0.19048138       0.23782962       0.50000000 </v>
   <v>       0.33234878       0.23634667       0.50000000 </v>
   <v>       0.47542646       0.23634667       0.50000000 </v>
   <v>       0.61877681       0.23782962       0.50000000 </v>
   <v>       0.76222155       0.23934281       0.50000000 </v>
   <v>       0.90562797       0.23982737       0.50000000 </v>
   <v>       0.04871288       0.38232824       0.50000000 </v>
   <v>       0.19188940       0.38184213       0.50000000 </v>
   <v>       0.33352206       0.38013969       0.50000000 </v>
   <v>       0.47472270       0.37801683       0.50000000 </v>
   <v>       0.61804620       0.38013969       0.50000000 </v>
   <v>       0.76138130       0.38184213       0.50000000 </v>
   <v>       0.90504393       0.38232824       0.50000000 </v>
   <v>       0.04810654       0.52478452       0.50000000 </v>
   <v>       0.19263929       0.52476864       0.50000000 </v>
   <v>       0.33696521       0.52455433       0.50000000 </v>
   <v>       0.47833704       0.52146721       0.50000000 </v>
   <v>       0.61455874       0.52146721       0.50000000 </v>
   <v>       0.75901769       0.52455433       0.50000000 </v>
   <v>       0.90355792       0.52476864       0.50000000 </v>
   <v>       0.04642473       0.66685228       0.50000000 </v>
   <v>       0.19185612       0.66685228       0.50000000 </v>
   <v>       0.33777931       0.66688794       0.50000000 </v>
   <v>       0.48615700       0.66653941       0.50000000 </v>
   <v>       0.75237918       0.66710760       0.50000000 </v>
   <v>       0.90053720       0.66688794       0.50000000 </v>
   <v>       0.04582562       0.80879365       0.50000000 </v>
   <v>       0.19009580       0.80876303       0.50000000 </v>
   <v>       0.33439660       0.80879365       0.50000000 </v>
   <v>       0.47844872       0.80897069       0.50000000 </v>
   <v>       0.62209487       0.81129474       0.50000000 </v>
   <v>       0.76062845       0.81129474       0.50000000 </v>
   <v>       0.90195054       0.80897069       0.50000000 </v>
   <v>       0.04629157       0.95154386       0.50000000 </v>
   <v>       0.18948291       0.95113037       0.50000000 </v>
   <v>       0.33307603       0.95113037       0.50000000 </v>
   <v>       0.47668087       0.95154386       0.50000000 </v>
   <v>       0.62015751       0.95313740       0.50000000 </v>
   <v>       0.76355772       0.95568687       0.50000000 </v>
   <v>       0.90440847       0.95313740       0.50000000 </v>
   <v>       0.56830873       0.56518888       0.50000000 </v>
  </varray>
 </structure>
</modeling>
