<?xml version="1.0" encoding="ISO-8859-1"?>
<modeling>
 <generator>
  <i name="program" type="string">vasp </i>
  <i name="version" type="string">5.4.4.18Apr17-6-g9f103f2a35  </i>
  <i name="subversion" type="string">(build Oct 18 2020 22:16:12) gamma-only         parallel </i>
  <i name="platform" type="string">UA-vaughan-2020a </i>
  <i name="date" type="string">2023 03 21 </i>
  <i name="time" type="string">23:39:38 </i>
 </generator>
 <incar>
  <i type="string" name="PREC">accurate</i>
  <i type="int" name="IALGO">    38</i>
  <i type="logical" name="ADDGRID"> T  </i>
  <i type="int" name="NELMIN">     5</i>
  <i type="int" name="IBRION">    -1</i>
  <i name="EDIFF">      0.00000001</i>
  <i name="EDIFFG">     -0.00000001</i>
  <i type="int" name="NSW">     0</i>
  <i type="int" name="ISIF">     2</i>
  <i name="ENCUT">    500.00000000</i>
  <i type="logical" name="LREAL"> F  </i>
  <i type="int" name="ISMEAR">     0</i>
  <i name="SIGMA">      0.01000000</i>
  <i type="logical" name="LWAVE"> F  </i>
  <i type="logical" name="LCHARG"> F  </i>
  <v type="int" name="KPOINT_BSE">    -1     0     0     0</v>
 </incar>
 <structure name="primitive_cell" >
  <crystal>
   <varray name="basis" >
    <v>      17.59966831       0.00000000       0.00000000 </v>
    <v>      -8.79983416      15.24175986       0.00000000 </v>
    <v>       0.00000000       0.00000000      19.92151445 </v>
   </varray>
   <i name="volume">   5343.94461817 </i>
   <varray name="rec_basis" >
    <v>       0.05681925       0.03280461       0.00000000 </v>
    <v>       0.00000000       0.06560922       0.00000000 </v>
    <v>       0.00000000       0.00000000       0.05019699 </v>
   </varray>
  </crystal>
  <varray name="positions" >
   <v>      -0.00056990       0.00005992      -0.50000000 </v>
   <v>      -0.09559153      -0.04686260      -0.50000000 </v>
   <v>       0.04629157      -0.04845614      -0.50000000 </v>
   <v>       0.04754270       0.09547788      -0.50000000 </v>
   <v>      -0.14173506       0.00214292      -0.50000000 </v>
   <v>       0.14259355       0.14244783      -0.50000000 </v>
   <v>       0.14164706      -0.00128105      -0.50000000 </v>
   <v>      -0.00222825      -0.14386507      -0.50000000 </v>
   <v>      -0.14440994      -0.14241310      -0.50000000 </v>
   <v>       0.00080792       0.14408264      -0.50000000 </v>
   <v>       0.18957833       0.09405657      -0.50000000 </v>
   <v>      -0.09417874       0.09719274      -0.50000000 </v>
   <v>      -0.09804946      -0.19102931      -0.50000000 </v>
   <v>      -0.23644228      -0.04431313      -0.50000000 </v>
   <v>      -0.23937155      -0.18870526      -0.50000000 </v>
   <v>       0.19048138       0.23782962      -0.50000000 </v>
   <v>       0.04582562      -0.19120635      -0.50000000 </v>
   <v>       0.18948291      -0.04886963      -0.50000000 </v>
   <v>       0.04854983       0.23934281      -0.50000000 </v>
   <v>      -0.28359367      -0.13861590      -0.50000000 </v>
   <v>       0.28470221       0.14112972      -0.50000000 </v>
   <v>      -0.14194737       0.14467669      -0.50000000 </v>
   <v>      -0.14938794      -0.28617460      -0.50000000 </v>
   <v>       0.14160898      -0.14408712      -0.50000000 </v>
   <v>       0.14372552       0.28645370      -0.50000000 </v>
   <v>      -0.28469345       0.00214292      -0.50000000 </v>
   <v>      -0.00292766      -0.28629482      -0.50000000 </v>
   <v>       0.28540977       0.28469374      -0.50000000 </v>
   <v>       0.00095476       0.28713011      -0.50000000 </v>
   <v>       0.28492260      -0.00158337      -0.50000000 </v>
   <v>      -0.29741032      -0.28373063      -0.50000000 </v>
   <v>      -0.09946280      -0.33311206      -0.50000000 </v>
   <v>       0.33234878       0.23634667      -0.50000000 </v>
   <v>      -0.23719996       0.09719274      -0.50000000 </v>
   <v>       0.33254182       0.09365506      -0.50000000 </v>
   <v>      -0.09437203       0.23982737      -0.50000000 </v>
   <v>      -0.24762082      -0.33289240      -0.50000000 </v>
   <v>      -0.37790513      -0.18870526      -0.50000000 </v>
   <v>       0.19151321       0.38184213       0.49962381 </v>
   <v>       0.19009580      -0.19123697      -0.50000000 </v>
   <v>      -0.37984249      -0.04686260      -0.50000000 </v>
   <v>       0.04642473      -0.33314772      -0.50000000 </v>
   <v>       0.33352206       0.38013969      -0.50000000 </v>
   <v>       0.04871288       0.38232824      -0.50000000 </v>
   <v>       0.33307603      -0.04886963      -0.50000000 </v>
   <v>      -0.41489174      -0.28373063      -0.50000000 </v>
   <v>      -0.42657459      -0.14241310      -0.50000000 </v>
   <v>       0.42724431       0.28306005      -0.50000000 </v>
   <v>      -0.14538305      -0.42818375      -0.50000000 </v>
   <v>      -0.28529671       0.14408264      -0.50000000 </v>
   <v>      -0.28954788      -0.42784436      -0.50000000 </v>
   <v>       0.42785608       0.14112972      -0.50000000 </v>
   <v>      -0.14239608       0.28713011      -0.50000000 </v>
   <v>       0.14422690       0.42957551      -0.50000000 </v>
   <v>       0.28730213       0.42918005      -0.50000000 </v>
   <v>       0.14255519      -0.28631818      -0.50000000 </v>
   <v>       0.28573247      -0.14408712      -0.50000000 </v>
   <v>      -0.24098231      -0.47544567      -0.50000000 </v>
   <v>       0.47542646       0.23634667      -0.50000000 </v>
   <v>      -0.23777845       0.23934281      -0.50000000 </v>
   <v>       0.42797654       0.42569726      -0.50000000 </v>
   <v>      -0.42794161       0.00005992      -0.50000000 </v>
   <v>      -0.00071745      -0.42818538      -0.50000000 </v>
   <v>       0.00054479       0.42966101      -0.50000000 </v>
   <v>       0.42850047      -0.00128105      -0.50000000 </v>
   <v>      -0.43169127      -0.43481112      -0.50000000 </v>
   <v>       0.47472270       0.37801683      -0.50000000 </v>
   <v>      -0.09644208      -0.47523136      -0.50000000 </v>
   <v>      -0.38063624       0.09547788      -0.50000000 </v>
   <v>       0.47590681       0.09405657      -0.50000000 </v>
   <v>      -0.09495607       0.38232824      -0.50000000 </v>
   <v>      -0.38544126      -0.47853279      -0.50000000 </v>
   <v>       0.48615700      -0.33289240      -0.50000000 </v>
   <v>       0.47844872      -0.19102931      -0.50000000 </v>
   <v>       0.19263929      -0.47523136      -0.50000000 </v>
   <v>       0.33696521      -0.47544567      -0.50000000 </v>
   <v>       0.19185612      -0.33314772      -0.50000000 </v>
   <v>       0.33439660      -0.19120635      -0.50000000 </v>
   <v>       0.43464191      -0.28617460      -0.50000000 </v>
   <v>      -0.28669350       0.42918005      -0.50000000 </v>
   <v>      -0.42928746       0.28469374      -0.50000000 </v>
   <v>      -0.28584326       0.28645370      -0.50000000 </v>
   <v>       0.28862787      -0.42818375      -0.50000000 </v>
   <v>       0.28806142      -0.28629482      -0.50000000 </v>
   <v>       0.47668087      -0.04845614      -0.50000000 </v>
   <v>       0.47833704      -0.47853279      -0.50000000 </v>
   <v>       0.04810654      -0.47521548      -0.50000000 </v>
   <v>       0.43313209      -0.42784436      -0.50000000 </v>
   <v>       0.42979175      -0.14386507      -0.50000000 </v>
   <v>      -0.43085070       0.42569726      -0.50000000 </v>
   <v>      -0.14322281       0.42957551      -0.50000000 </v>
   <v>      -0.42871714       0.14244783      -0.50000000 </v>
   <v>       0.14396064      -0.42818538      -0.50000000 </v>
   <v>      -0.23861870       0.38184213      -0.50000000 </v>
   <v>      -0.38122319       0.23782962      -0.50000000 </v>
   <v>      -0.38195380       0.38013969      -0.50000000 </v>
   <v>       0.33777931      -0.33311206      -0.50000000 </v>
  </varray>
 </structure>
 <varray name="primitive_index" >
  <v type="int" >        1 </v>
  <v type="int" >       96 </v>
  <v type="int" >       90 </v>
  <v type="int" >       49 </v>
  <v type="int" >        7 </v>
  <v type="int" >        9 </v>
  <v type="int" >        2 </v>
  <v type="int" >       42 </v>
  <v type="int" >       48 </v>
  <v type="int" >        8 </v>
  <v type="int" >       50 </v>
  <v type="int" >       55 </v>
  <v type="int" >       89 </v>
  <v type="int" >       95 </v>
  <v type="int" >       88 </v>
  <v type="int" >       57 </v>
  <v type="int" >       83 </v>
  <v type="int" >       91 </v>
  <v type="int" >       56 </v>
  <v type="int" >       47 </v>
  <v type="int" >       10 </v>
  <v type="int" >       14 </v>
  <v type="int" >       41 </v>
  <v type="int" >       43 </v>
  <v type="int" >       16 </v>
  <v type="int" >        6 </v>
  <v type="int" >       35 </v>
  <v type="int" >       17 </v>
  <v type="int" >       15 </v>
  <v type="int" >        3 </v>
  <v type="int" >       40 </v>
  <v type="int" >       82 </v>
  <v type="int" >       58 </v>
  <v type="int" >       54 </v>
  <v type="int" >       51 </v>
  <v type="int" >       62 </v>
  <v type="int" >       81 </v>
  <v type="int" >       87 </v>
  <v type="int" >       64 </v>
  <v type="int" >       84 </v>
  <v type="int" >       94 </v>
  <v type="int" >       77 </v>
  <v type="int" >       65 </v>
  <v type="int" >       63 </v>
  <v type="int" >       92 </v>
  <v type="int" >       39 </v>
  <v type="int" >       46 </v>
  <v type="int" >       18 </v>
  <v type="int" >       34 </v>
  <v type="int" >       13 </v>
  <v type="int" >       33 </v>
  <v type="int" >       11 </v>
  <v type="int" >       21 </v>
  <v type="int" >       23 </v>
  <v type="int" >       24 </v>
  <v type="int" >       36 </v>
  <v type="int" >       44 </v>
  <v type="int" >       75 </v>
  <v type="int" >       59 </v>
  <v type="int" >       61 </v>
  <v type="int" >       25 </v>
  <v type="int" >        5 </v>
  <v type="int" >       29 </v>
  <v type="int" >       22 </v>
  <v type="int" >        4 </v>
  <v type="int" >       97 </v>
  <v type="int" >       66 </v>
  <v type="int" >       76 </v>
  <v type="int" >       53 </v>
  <v type="int" >       52 </v>
  <v type="int" >       69 </v>
  <v type="int" >       74 </v>
  <v type="int" >       80 </v>
  <v type="int" >       86 </v>
  <v type="int" >       71 </v>
  <v type="int" >       72 </v>
  <v type="int" >       78 </v>
  <v type="int" >       85 </v>
  <v type="int" >       38 </v>
  <v type="int" >       27 </v>
  <v type="int" >       19 </v>
  <v type="int" >       20 </v>
  <v type="int" >       31 </v>
  <v type="int" >       37 </v>
  <v type="int" >       93 </v>
  <v type="int" >       73 </v>
  <v type="int" >       70 </v>
  <v type="int" >       32 </v>
  <v type="int" >       45 </v>
  <v type="int" >       26 </v>
  <v type="int" >       28 </v>
  <v type="int" >       12 </v>
  <v type="int" >       30 </v>
  <v type="int" >       68 </v>
  <v type="int" >       60 </v>
  <v type="int" >       67 </v>
  <v type="int" >       79 </v>
 </varray>
 <kpoints>
  <generation param="Gamma">
   <v type="int" name="divisions">       1        1        1 </v>
   <v name="usershift">      0.00000000       0.00000000       0.00000000 </v>
   <v name="genvec1">      1.00000000      -0.00000000       0.00000000 </v>
   <v name="genvec2">      0.00000000       1.00000000       0.00000000 </v>
   <v name="genvec3">      0.00000000       0.00000000       1.00000000 </v>
   <v name="shift">      0.00000000       0.00000000       0.00000000 </v>
  </generation>
  <varray name="kpointlist" >
   <v>       0.00000000       0.00000000       0.00000000 </v>
  </varray>
  <varray name="weights" >
   <v>       1.00000000 </v>
  </varray>
 </kpoints>
 <parameters>
  <separator name="general" >
   <i type="string" name="SYSTEM">unknown system</i>
   <i type="logical" name="LCOMPAT"> F  </i>
  </separator>
  <separator name="electronic" >
   <i type="string" name="PREC">accura</i>
   <i name="ENMAX">    500.00000000</i>
   <i name="ENAUG">    644.87300000</i>
   <i name="EDIFF">      0.00000001</i>
   <i type="int" name="IALGO">    38</i>
   <i type="int" name="IWAVPR">    10</i>
   <i type="int" name="NBANDS">   244</i>
   <i name="NELECT">    388.00000000</i>
   <i type="int" name="TURBO">     0</i>
   <i type="int" name="IRESTART">     0</i>
   <i type="int" name="NREBOOT">     0</i>
   <i type="int" name="NMIN">     0</i>
   <i name="EREF">      0.00000000</i>
   <separator name="electronic smearing" >
    <i type="int" name="ISMEAR">     0</i>
    <i name="SIGMA">      0.01000000</i>
    <i name="KSPACING">      0.50000000</i>
    <i type="logical" name="KGAMMA"> T  </i>
   </separator>
   <separator name="electronic projectors" >
    <i type="logical" name="LREAL"> F  </i>
    <v name="ROPT">      0.00000000      0.00000000      0.00000000</v>
    <i type="int" name="LMAXPAW">  -100</i>
    <i type="int" name="LMAXMIX">     2</i>
    <i type="logical" name="NLSPLINE"> F  </i>
   </separator>
   <separator name="electronic startup" >
    <i type="int" name="ISTART">     0</i>
    <i type="int" name="ICHARG">     2</i>
    <i type="int" name="INIWAV">     1</i>
   </separator>
   <separator name="electronic spin" >
    <i type="int" name="ISPIN">     1</i>
    <i type="logical" name="LNONCOLLINEAR"> F  </i>
    <v name="MAGMOM">      1.00000000      1.00000000      1.00000000      1.00000000      1.00000000      1.00000000      1.00000000      1.00000000      1.00000000      1.00000000      1.00000000      1.00000000      1.00000000      1.00000000      1.00000000      1.00000000      1.00000000      1.00000000      1.00000000      1.00000000
      1.00000000      1.00000000      1.00000000      1.00000000      1.00000000      1.00000000      1.00000000      1.00000000      1.00000000      1.00000000      1.00000000      1.00000000      1.00000000      1.00000000      1.00000000      1.00000000      1.00000000      1.00000000      1.00000000      1.00000000
      1.00000000      1.00000000      1.00000000      1.00000000      1.00000000      1.00000000      1.00000000      1.00000000      1.00000000      1.00000000      1.00000000      1.00000000      1.00000000      1.00000000      1.00000000      1.00000000      1.00000000      1.00000000      1.00000000      1.00000000
      1.00000000      1.00000000      1.00000000      1.00000000      1.00000000      1.00000000      1.00000000      1.00000000      1.00000000      1.00000000      1.00000000      1.00000000      1.00000000      1.00000000      1.00000000      1.00000000      1.00000000      1.00000000      1.00000000      1.00000000
      1.00000000      1.00000000      1.00000000      1.00000000      1.00000000      1.00000000      1.00000000      1.00000000      1.00000000      1.00000000      1.00000000      1.00000000      1.00000000      1.00000000      1.00000000      1.00000000      1.00000000</v>
    <i name="NUPDOWN">     -1.00000000</i>
    <i type="logical" name="LSORBIT"> F  </i>
    <v name="SAXIS">      0.00000000      0.00000000      1.00000000</v>
    <i type="logical" name="LSPIRAL"> F  </i>
    <v name="QSPIRAL">      0.00000000      0.00000000      0.00000000</v>
    <i type="logical" name="LZEROZ"> F  </i>
   </separator>
   <separator name="electronic exchange-correlation" >
    <i type="logical" name="LASPH"> F  </i>
    <i type="logical" name="LMETAGGA"> F  </i>
   </separator>
   <separator name="electronic convergence" >
    <i type="int" name="NELM">    60</i>
    <i type="int" name="NELMDL">    -5</i>
    <i type="int" name="NELMIN">     5</i>
    <i name="ENINI">    500.00000000</i>
    <separator name="electronic convergence detail" >
     <i type="logical" name="LDIAG"> T  </i>
     <i type="logical" name="LSUBROT"> F  </i>
     <i name="WEIMIN">      0.00000000</i>
     <i name="EBREAK">      0.00000000</i>
     <i name="DEPER">      0.30000000</i>
     <i type="int" name="NRMM">     4</i>
     <i name="TIME">      0.40000000</i>
    </separator>
   </separator>
   <separator name="electronic mixer" >
    <i name="AMIX">      0.40000000</i>
    <i name="BMIX">      1.00000000</i>
    <i name="AMIN">      0.10000000</i>
    <i name="AMIX_MAG">      1.60000000</i>
    <i name="BMIX_MAG">      1.00000000</i>
    <separator name="electronic mixer details" >
     <i type="int" name="IMIX">     4</i>
     <i type="logical" name="MIXFIRST"> F  </i>
     <i type="int" name="MAXMIX">   -45</i>
     <i name="WC">    100.00000000</i>
     <i type="int" name="INIMIX">     1</i>
     <i type="int" name="MIXPRE">     1</i>
     <i type="int" name="MREMOVE">     5</i>
    </separator>
   </separator>
   <separator name="electronic dipolcorrection" >
    <i type="logical" name="LDIPOL"> F  </i>
    <i type="logical" name="LMONO"> F  </i>
    <i type="int" name="IDIPOL">     0</i>
    <i name="EPSILON">      1.00000000</i>
    <v name="DIPOL">   -100.00000000   -100.00000000   -100.00000000</v>
    <i name="EFIELD">      0.00000000</i>
   </separator>
  </separator>
  <separator name="grids" >
   <i type="int" name="NGX">   128</i>
   <i type="int" name="NGY">   128</i>
   <i type="int" name="NGZ">   150</i>
   <i type="int" name="NGXF">   256</i>
   <i type="int" name="NGYF">   256</i>
   <i type="int" name="NGZF">   300</i>
   <i type="logical" name="ADDGRID"> T  </i>
  </separator>
  <separator name="ionic" >
   <i type="int" name="NSW">     0</i>
   <i type="int" name="IBRION">    -1</i>
   <i type="int" name="MDALGO">     0</i>
   <i type="int" name="ISIF">     2</i>
   <i name="PSTRESS">      0.00000000</i>
   <i name="EDIFFG">     -0.00000001</i>
   <i type="int" name="NFREE">     0</i>
   <i name="POTIM">      0.50000000</i>
   <i name="SMASS">     -3.00000000</i>
   <i name="SCALEE">      1.00000000</i>
  </separator>
  <separator name="ionic md" >
   <i name="TEBEG">      0.00010000</i>
   <i name="TEEND">      0.00010000</i>
   <i type="int" name="NBLOCK">     1</i>
   <i type="int" name="KBLOCK">     1</i>
   <i type="int" name="NPACO">   256</i>
   <i name="APACO">     16.00000000</i>
  </separator>
  <separator name="symmetry" >
   <i type="int" name="ISYM">     2</i>
   <i name="SYMPREC">      0.00001000</i>
  </separator>
  <separator name="dos" >
   <i type="int" name="LORBIT">     0</i>
   <v name="RWIGS">     -1.00000000     -1.00000000     -1.00000000</v>
   <i type="int" name="NEDOS">   301</i>
   <i name="EMIN">     10.00000000</i>
   <i name="EMAX">    -10.00000000</i>
   <i name="EFERMI">      0.00000000</i>
  </separator>
  <separator name="writing" >
   <i type="int" name="NWRITE">     2</i>
   <i type="logical" name="LWAVE"> F  </i>
   <i type="logical" name="LDOWNSAMPLE"> F  </i>
   <i type="logical" name="LCHARG"> F  </i>
   <i type="logical" name="LPARD"> F  </i>
   <i type="logical" name="LVTOT"> F  </i>
   <i type="logical" name="LVHAR"> F  </i>
   <i type="logical" name="LELF"> F  </i>
   <i type="logical" name="LOPTICS"> F  </i>
   <v name="STM">      0.00000000      0.00000000      0.00000000      0.00000000      0.00000000      0.00000000      0.00000000</v>
  </separator>
  <separator name="performance" >
   <i type="int" name="NPAR">     4</i>
   <i type="int" name="NSIM">     4</i>
   <i type="int" name="NBLK">    -1</i>
   <i type="logical" name="LPLANE"> T  </i>
   <i type="logical" name="LSCALAPACK"> T  </i>
   <i type="logical" name="LSCAAWARE"> F  </i>
   <i type="logical" name="LSCALU"> F  </i>
   <i type="logical" name="LASYNC"> F  </i>
   <i type="logical" name="LORBITALREAL"> F  </i>
  </separator>
  <separator name="miscellaneous" >
   <i type="int" name="IDIOT">     3</i>
   <i type="int" name="ISPECIAL">     0</i>
   <i type="logical" name="LMUSIC"> F  </i>
   <v name="POMASS">     10.81100000     14.00100000     12.01100000</v>
   <v name="DARWINR">      0.00000000      0.00000000      0.00000000</v>
   <v name="DARWINV">      1.00000000      1.00000000      1.00000000</v>
   <i type="logical" name="LCORR"> T  </i>
  </separator>
  <i type="logical" name="GGA_COMPAT"> T  </i>
  <i type="logical" name="LBERRY"> F  </i>
  <i type="int" name="ICORELEVEL">     0</i>
  <i type="logical" name="LDAU"> F  </i>
  <i type="int" name="I_CONSTRAINED_M">     0</i>
  <separator name="electronic exchange-correlation" >
   <i type="string" name="GGA">--</i>
   <i type="int" name="VOSKOWN">     0</i>
   <i type="logical" name="LHFCALC"> F  </i>
   <i type="string" name="PRECFOCK"></i>
   <i type="logical" name="LSYMGRAD"> F  </i>
   <i type="logical" name="LHFONE"> F  </i>
   <i type="logical" name="LRHFCALC"> F  </i>
   <i type="logical" name="LTHOMAS"> F  </i>
   <i type="logical" name="LMODELHF"> F  </i>
   <i name="ENCUT4O">     -1.00000000</i>
   <i type="int" name="EXXOEP">     0</i>
   <i type="int" name="FOURORBIT">     0</i>
   <i name="AEXX">      0.00000000</i>
   <i name="HFALPHA">      0.00000000</i>
   <i name="MCALPHA">      0.00000000</i>
   <i name="ALDAX">      1.00000000</i>
   <i name="AGGAX">      1.00000000</i>
   <i name="ALDAC">      1.00000000</i>
   <i name="AGGAC">      1.00000000</i>
   <i type="int" name="NKREDX">     1</i>
   <i type="int" name="NKREDY">     1</i>
   <i type="int" name="NKREDZ">     1</i>
   <i type="logical" name="SHIFTRED"> F  </i>
   <i type="logical" name="ODDONLY"> F  </i>
   <i type="logical" name="EVENONLY"> F  </i>
   <i type="int" name="LMAXFOCK">     0</i>
   <i type="int" name="NMAXFOCKAE">     0</i>
   <i type="logical" name="LFOCKAEDFT"> F  </i>
   <i name="HFSCREEN">      0.00000000</i>
   <i name="HFSCREENC">      0.00000000</i>
   <i type="int" name="NBANDSGWLOW">     0</i>
  </separator>
  <separator name="vdW DFT" >
   <i type="logical" name="LUSE_VDW"> F  </i>
   <i name="Zab_VDW">     -0.84910000</i>
   <i name="PARAM1">      0.12340000</i>
   <i name="PARAM2">      1.00000000</i>
   <i name="PARAM3">      0.00000000</i>
  </separator>
  <separator name="model GW" >
   <i type="int" name="MODEL_GW">     0</i>
   <i name="MODEL_EPS0">     33.05532754</i>
   <i name="MODEL_ALPHA">      1.00000000</i>
  </separator>
  <separator name="linear response parameters" >
   <i type="logical" name="LEPSILON"> F  </i>
   <i type="logical" name="LRPA"> F  </i>
   <i type="logical" name="LNABLA"> F  </i>
   <i type="logical" name="LVEL"> F  </i>
   <i type="int" name="KINTER">     0</i>
   <i name="CSHIFT">      0.10000000</i>
   <i name="OMEGAMAX">     -1.00000000</i>
   <i name="DEG_THRESHOLD">      0.00200000</i>
   <i name="RTIME">     -0.10000000</i>
   <i name="WPLASMAI">      0.00000000</i>
   <v name="DFIELD">      0.00000000      0.00000000      0.00000000</v>
   <v name="WPLASMA">      0.00000000      0.00000000      0.00000000      0.00000000      0.00000000      0.00000000      0.00000000      0.00000000      0.00000000</v>
  </separator>
  <separator name="orbital magnetization" >
   <i type="logical" name="NUCIND"> F  </i>
   <v name="MAGPOS">      0.00000000      0.00000000      0.00000000</v>
   <i type="logical" name="LNICSALL"> T  </i>
   <i type="logical" name="ORBITALMAG"> F  </i>
   <i type="logical" name="LMAGBLOCH"> F  </i>
   <i type="logical" name="LCHIMAG"> F  </i>
   <i type="logical" name="LGAUGE"> T  </i>
   <i type="int" name="MAGATOM">     0</i>
   <v name="MAGDIPOL">      0.00000000      0.00000000      0.00000000</v>
   <v name="AVECCONST">      0.00000000      0.00000000      0.00000000</v>
  </separator>
  <separator name="response functions" >
   <i type="logical" name="LADDER"> F  </i>
   <i type="logical" name="LRPAFORCE"> F  </i>
   <i type="logical" name="LFXC"> F  </i>
   <i type="logical" name="LHARTREE"> T  </i>
   <i type="int" name="IBSE">     0</i>
   <v type="int" name="KPOINT">    -1     0     0     0</v>
   <i type="logical" name="LTCTE"> F  </i>
   <i type="logical" name="LTETE"> F  </i>
   <i type="logical" name="LTRIPLET"> F  </i>
   <i type="logical" name="LFXCEPS"> F  </i>
   <i type="logical" name="LFXHEG"> F  </i>
   <i type="int" name="NATURALO">     2</i>
   <i type="logical" name="L2ORDER"> F  </i>
   <i type="logical" name="LMP2LT"> F  </i>
   <i type="logical" name="LUSEW"> F  </i>
   <i name="ENCUTGW">     -2.00000000</i>
   <i name="ENCUTGWSOFT">     -2.00000000</i>
   <i name="ENCUTLF">     -1.00000000</i>
   <i type="int" name="LMAXMP2">    -1</i>
   <i name="SCISSOR">      0.00000000</i>
   <i type="int" name="NOMEGA">     0</i>
   <i type="int" name="NOMEGAR">     0</i>
   <i type="int" name="NBANDSGW">    -1</i>
   <i type="int" name="NBANDSO">    -1</i>
   <i type="int" name="NBANDSV">    -1</i>
   <i type="int" name="NELM">     1</i>
   <i type="int" name="NELMHF">     1</i>
   <i type="int" name="DIM">     3</i>
   <i type="int" name="ANTIRES">     0</i>
   <i name="OMEGAMAX">    -30.00000000</i>
   <i name="OMEGAMIN">    -30.00000000</i>
   <i name="OMEGATL">   -200.00000000</i>
   <i type="int" name="OMEGAGRID">   140</i>
   <i name="CSHIFT">     -0.10000000</i>
   <i type="logical" name="SELFENERGY"> F  </i>
   <i type="logical" name="LSPECTRAL"> F  </i>
   <i type="logical" name="LSPECTRALGW"> F  </i>
   <i type="logical" name="LSINGLES"> F  </i>
   <i type="logical" name="LFERMIGW"> F  </i>
   <i type="logical" name="ODDONLYGW"> F  </i>
   <i type="logical" name="EVENONLYGW"> F  </i>
   <i type="int" name="NKREDLFX">     1</i>
   <i type="int" name="NKREDLFY">     1</i>
   <i type="int" name="NKREDLFZ">     1</i>
   <i type="int" name="MAXMEM">  2800</i>
   <i type="int" name="TELESCOPE">     0</i>
   <i type="int" name="TAUPAR">     1</i>
   <i type="int" name="OMEGAPAR">    -1</i>
   <i name="LAMBDA">      1.00000000</i>
  </separator>
  <separator name="External order field" >
   <i name="OFIELD_KAPPA">      0.00000000</i>
   <v name="OFIELD_K">      0.00000000      0.00000000      0.00000000</v>
   <i name="OFIELD_Q6_NEAR">      0.00000000</i>
   <i name="OFIELD_Q6_FAR">      0.00000000</i>
   <i name="OFIELD_A">      0.00000000</i>
  </separator>
 </parameters>
 <atominfo>
  <atoms>      97 </atoms>
  <types>       3 </types>
  <array name="atoms" >
   <dimension dim="1">ion</dimension>
   <field type="string">element</field>
   <field type="int">atomtype</field>
   <set>
    <rc><c>B </c><c>   1</c></rc>
    <rc><c>B </c><c>   1</c></rc>
    <rc><c>B </c><c>   1</c></rc>
    <rc><c>B </c><c>   1</c></rc>
    <rc><c>B </c><c>   1</c></rc>
    <rc><c>B </c><c>   1</c></rc>
    <rc><c>B </c><c>   1</c></rc>
    <rc><c>B </c><c>   1</c></rc>
    <rc><c>B </c><c>   1</c></rc>
    <rc><c>B </c><c>   1</c></rc>
    <rc><c>B </c><c>   1</c></rc>
    <rc><c>B </c><c>   1</c></rc>
    <rc><c>B </c><c>   1</c></rc>
    <rc><c>B </c><c>   1</c></rc>
    <rc><c>B </c><c>   1</c></rc>
    <rc><c>B </c><c>   1</c></rc>
    <rc><c>B </c><c>   1</c></rc>
    <rc><c>B </c><c>   1</c></rc>
    <rc><c>B </c><c>   1</c></rc>
    <rc><c>B </c><c>   1</c></rc>
    <rc><c>B </c><c>   1</c></rc>
    <rc><c>B </c><c>   1</c></rc>
    <rc><c>B </c><c>   1</c></rc>
    <rc><c>B </c><c>   1</c></rc>
    <rc><c>B </c><c>   1</c></rc>
    <rc><c>B </c><c>   1</c></rc>
    <rc><c>B </c><c>   1</c></rc>
    <rc><c>B </c><c>   1</c></rc>
    <rc><c>B </c><c>   1</c></rc>
    <rc><c>B </c><c>   1</c></rc>
    <rc><c>B </c><c>   1</c></rc>
    <rc><c>B </c><c>   1</c></rc>
    <rc><c>B </c><c>   1</c></rc>
    <rc><c>B </c><c>   1</c></rc>
    <rc><c>B </c><c>   1</c></rc>
    <rc><c>B </c><c>   1</c></rc>
    <rc><c>B </c><c>   1</c></rc>
    <rc><c>B </c><c>   1</c></rc>
    <rc><c>B </c><c>   1</c></rc>
    <rc><c>B </c><c>   1</c></rc>
    <rc><c>B </c><c>   1</c></rc>
    <rc><c>B </c><c>   1</c></rc>
    <rc><c>B </c><c>   1</c></rc>
    <rc><c>B </c><c>   1</c></rc>
    <rc><c>B </c><c>   1</c></rc>
    <rc><c>B </c><c>   1</c></rc>
    <rc><c>B </c><c>   1</c></rc>
    <rc><c>B </c><c>   1</c></rc>
    <rc><c>N </c><c>   2</c></rc>
    <rc><c>N </c><c>   2</c></rc>
    <rc><c>N </c><c>   2</c></rc>
    <rc><c>N </c><c>   2</c></rc>
    <rc><c>N </c><c>   2</c></rc>
    <rc><c>N </c><c>   2</c></rc>
    <rc><c>N </c><c>   2</c></rc>
    <rc><c>N </c><c>   2</c></rc>
    <rc><c>N </c><c>   2</c></rc>
    <rc><c>N </c><c>   2</c></rc>
    <rc><c>N </c><c>   2</c></rc>
    <rc><c>N </c><c>   2</c></rc>
    <rc><c>N </c><c>   2</c></rc>
    <rc><c>N </c><c>   2</c></rc>
    <rc><c>N </c><c>   2</c></rc>
    <rc><c>N </c><c>   2</c></rc>
    <rc><c>N </c><c>   2</c></rc>
    <rc><c>N </c><c>   2</c></rc>
    <rc><c>N </c><c>   2</c></rc>
    <rc><c>N </c><c>   2</c></rc>
    <rc><c>N </c><c>   2</c></rc>
    <rc><c>N </c><c>   2</c></rc>
    <rc><c>N </c><c>   2</c></rc>
    <rc><c>N </c><c>   2</c></rc>
    <rc><c>N </c><c>   2</c></rc>
    <rc><c>N </c><c>   2</c></rc>
    <rc><c>N </c><c>   2</c></rc>
    <rc><c>N </c><c>   2</c></rc>
    <rc><c>N </c><c>   2</c></rc>
    <rc><c>N </c><c>   2</c></rc>
    <rc><c>N </c><c>   2</c></rc>
    <rc><c>N </c><c>   2</c></rc>
    <rc><c>N </c><c>   2</c></rc>
    <rc><c>N </c><c>   2</c></rc>
    <rc><c>N </c><c>   2</c></rc>
    <rc><c>N </c><c>   2</c></rc>
    <rc><c>N </c><c>   2</c></rc>
    <rc><c>N </c><c>   2</c></rc>
    <rc><c>N </c><c>   2</c></rc>
    <rc><c>N </c><c>   2</c></rc>
    <rc><c>N </c><c>   2</c></rc>
    <rc><c>N </c><c>   2</c></rc>
    <rc><c>N </c><c>   2</c></rc>
    <rc><c>N </c><c>   2</c></rc>
    <rc><c>N </c><c>   2</c></rc>
    <rc><c>N </c><c>   2</c></rc>
    <rc><c>N </c><c>   2</c></rc>
    <rc><c>N </c><c>   2</c></rc>
    <rc><c>C </c><c>   3</c></rc>
   </set>
  </array>
  <array name="atomtypes" >
   <dimension dim="1">type</dimension>
   <field type="int">atomspertype</field>
   <field type="string">element</field>
   <field>mass</field>
   <field>valence</field>
   <field type="string">pseudopotential</field>
   <set>
    <rc><c>  48</c><c>B </c><c>     10.81100000</c><c>      3.00000000</c><c>  PAW_PBE B 06Sep2000                   </c></rc>
    <rc><c>  48</c><c>N </c><c>     14.00100000</c><c>      5.00000000</c><c>  PAW_PBE N 08Apr2002                   </c></rc>
    <rc><c>   1</c><c>C </c><c>     12.01100000</c><c>      4.00000000</c><c>  PAW_PBE C 08Apr2002                   </c></rc>
   </set>
  </array>
 </atominfo>
 <structure name="initialpos" >
  <crystal>
   <varray name="basis" >
    <v>      17.59966831       0.00000000       0.00000000 </v>
    <v>      -8.79983416      15.24175986       0.00000000 </v>
    <v>       0.00000000       0.00000000      19.92151445 </v>
   </varray>
   <i name="volume">   5343.94461817 </i>
   <varray name="rec_basis" >
    <v>       0.05681925       0.03280461       0.00000000 </v>
    <v>       0.00000000       0.06560922       0.00000000 </v>
    <v>       0.00000000       0.00000000       0.05019699 </v>
   </varray>
  </crystal>
  <varray name="positions" >
   <v>       0.99943010       0.00005992       0.50000000 </v>
   <v>       0.14164706       0.99871895       0.50000000 </v>
   <v>       0.28492260       0.99841663       0.50000000 </v>
   <v>       0.42850047       0.99871895       0.50000000 </v>
   <v>       0.57205839       0.00005992       0.50000000 </v>
   <v>       0.71530655       0.00214292       0.50000000 </v>
   <v>       0.85826494       0.00214292       0.50000000 </v>
   <v>       0.00080792       0.14408264       0.50000000 </v>
   <v>       0.14259355       0.14244783       0.50000000 </v>
   <v>       0.28470221       0.14112972       0.50000000 </v>
   <v>       0.42785608       0.14112972       0.50000000 </v>
   <v>       0.57128286       0.14244783       0.50000000 </v>
   <v>       0.71470329       0.14408264       0.50000000 </v>
   <v>       0.85805263       0.14467669       0.50000000 </v>
   <v>       0.00095476       0.28713011       0.50000000 </v>
   <v>       0.14372552       0.28645370       0.50000000 </v>
   <v>       0.28540977       0.28469374       0.50000000 </v>
   <v>       0.42724431       0.28306005       0.50000000 </v>
   <v>       0.57071254       0.28469374       0.50000000 </v>
   <v>       0.71415674       0.28645370       0.50000000 </v>
   <v>       0.85760392       0.28713011       0.50000000 </v>
   <v>       0.00054479       0.42966101       0.50000000 </v>
   <v>       0.14422690       0.42957551       0.50000000 </v>
   <v>       0.28730213       0.42918005       0.50000000 </v>
   <v>       0.42797654       0.42569726       0.50000000 </v>
   <v>       0.56914930       0.42569726       0.50000000 </v>
   <v>       0.71330650       0.42918005       0.50000000 </v>
   <v>       0.85677719       0.42957551       0.50000000 </v>
   <v>       0.99928255       0.57181462       0.50000000 </v>
   <v>       0.14396064       0.57181462       0.50000000 </v>
   <v>       0.28862787       0.57181625       0.50000000 </v>
   <v>       0.43313209       0.57215564       0.50000000 </v>
   <v>       0.71045212       0.57215564       0.50000000 </v>
   <v>       0.85461695       0.57181625       0.50000000 </v>
   <v>       0.99707234       0.71370518       0.50000000 </v>
   <v>       0.14255519       0.71368182       0.50000000 </v>
   <v>       0.28806142       0.71370518       0.50000000 </v>
   <v>       0.43464191       0.71382540       0.50000000 </v>
   <v>       0.58510826       0.71626937       0.50000000 </v>
   <v>       0.70258968       0.71626937       0.50000000 </v>
   <v>       0.85061206       0.71382540       0.50000000 </v>
   <v>       0.99777175       0.85613493       0.50000000 </v>
   <v>       0.14160898       0.85591288       0.50000000 </v>
   <v>       0.28573247       0.85591288       0.50000000 </v>
   <v>       0.42979175       0.85613493       0.50000000 </v>
   <v>       0.57342541       0.85758690       0.50000000 </v>
   <v>       0.71640633       0.86138410       0.50000000 </v>
   <v>       0.85559006       0.85758690       0.50000000 </v>
   <v>       0.04754270       0.09547788       0.50000000 </v>
   <v>       0.18957833       0.09405657       0.50000000 </v>
   <v>       0.33254182       0.09365506       0.50000000 </v>
   <v>       0.47590681       0.09405657       0.50000000 </v>
   <v>       0.61936376       0.09547788       0.50000000 </v>
   <v>       0.76280004       0.09719274       0.50000000 </v>
   <v>       0.90582126       0.09719274       0.50000000 </v>
   <v>       0.04854983       0.23934281       0.50000000 </v>
   <v>       0.19048138       0.23782962       0.50000000 </v>
   <v>       0.33234878       0.23634667       0.50000000 </v>
   <v>       0.47542646       0.23634667       0.50000000 </v>
   <v>       0.61877681       0.23782962       0.50000000 </v>
   <v>       0.76222155       0.23934281       0.50000000 </v>
   <v>       0.90562797       0.23982737       0.50000000 </v>
   <v>       0.04871288       0.38232824       0.50000000 </v>
   <v>       0.19151321       0.38184213       0.49962381 </v>
   <v>       0.33352206       0.38013969       0.50000000 </v>
   <v>       0.47472270       0.37801683       0.50000000 </v>
   <v>       0.61804620       0.38013969       0.50000000 </v>
   <v>       0.76138130       0.38184213       0.50000000 </v>
   <v>       0.90504393       0.38232824       0.50000000 </v>
   <v>       0.04810654       0.52478452       0.50000000 </v>
   <v>       0.19263929       0.52476864       0.50000000 </v>
   <v>       0.33696521       0.52455433       0.50000000 </v>
   <v>       0.47833704       0.52146721       0.50000000 </v>
   <v>       0.61455874       0.52146721       0.50000000 </v>
   <v>       0.75901769       0.52455433       0.50000000 </v>
   <v>       0.90355792       0.52476864       0.50000000 </v>
   <v>       0.04642473       0.66685228       0.50000000 </v>
   <v>       0.19185612       0.66685228       0.50000000 </v>
   <v>       0.33777931       0.66688794       0.50000000 </v>
   <v>       0.48615700       0.66710760       0.50000000 </v>
   <v>       0.75237918       0.66710760       0.50000000 </v>
   <v>       0.90053720       0.66688794       0.50000000 </v>
   <v>       0.04582562       0.80879365       0.50000000 </v>
   <v>       0.19009580       0.80876303       0.50000000 </v>
   <v>       0.33439660       0.80879365       0.50000000 </v>
   <v>       0.47844872       0.80897069       0.50000000 </v>
   <v>       0.62209487       0.81129474       0.50000000 </v>
   <v>       0.76062845       0.81129474       0.50000000 </v>
   <v>       0.90195054       0.80897069       0.50000000 </v>
   <v>       0.04629157       0.95154386       0.50000000 </v>
   <v>       0.18948291       0.95113037       0.50000000 </v>
   <v>       0.33307603       0.95113037       0.50000000 </v>
   <v>       0.47668087       0.95154386       0.50000000 </v>
   <v>       0.62015751       0.95313740       0.50000000 </v>
   <v>       0.76355772       0.95568687       0.50000000 </v>
   <v>       0.90440847       0.95313740       0.50000000 </v>
   <v>       0.56830873       0.56518888       0.50000000 </v>
  </varray>
 </structure>
 <calculation>
  <scstep>
   <time name="dav">    2.35    2.37</time>
   <time name="total">    2.72    2.82</time>
   <energy>
    <i name="alphaZ">    156.50993408 </i>
    <i name="ewald">  58206.77228100 </i>
    <i name="hartreedc"> -70374.19706351 </i>
    <i name="XCdc">   1302.10867857 </i>
    <i name="pawpsdc">  12033.28670802 </i>
    <i name="pawaedc"> -12049.96799276 </i>
    <i name="eentropy">     -0.00000000 </i>
    <i name="bandstr">   -904.54690939 </i>
    <i name="atom">  16260.93880140 </i>
    <i name="e_fr_energy">   4630.90443741 </i>
    <i name="e_wo_entrp">   4630.90443741 </i>
    <i name="e_0_energy">   4630.90443741 </i>
   </energy>
  </scstep>
  <scstep>
   <time name="dav">    3.00    3.04</time>
   <time name="total">    3.00    3.04</time>
   <energy>
    <i name="e_fr_energy">    216.76435178 </i>
    <i name="e_wo_entrp">    216.76435178 </i>
    <i name="e_0_energy">    216.76435178 </i>
   </energy>
  </scstep>
  <scstep>
   <time name="dav">    2.47    2.50</time>
   <time name="total">    2.47    2.50</time>
   <energy>
    <i name="e_fr_energy">   -867.46884708 </i>
    <i name="e_wo_entrp">   -867.46884708 </i>
    <i name="e_0_energy">   -867.46884708 </i>
   </energy>
  </scstep>
  <scstep>
   <time name="dav">    2.47    2.50</time>
   <time name="total">    2.47    2.50</time>
   <energy>
    <i name="e_fr_energy">   -934.19374240 </i>
    <i name="e_wo_entrp">   -934.19374240 </i>
    <i name="e_0_energy">   -934.19374240 </i>
   </energy>
  </scstep>
  <scstep>
   <time name="dav">    2.51    2.54</time>
   <time name="total">    2.75    2.79</time>
   <energy>
    <i name="e_fr_energy">   -935.77606425 </i>
    <i name="e_wo_entrp">   -935.77606425 </i>
    <i name="e_0_energy">   -935.77606425 </i>
   </energy>
  </scstep>
  <scstep>
   <time name="dav">    2.33    2.35</time>
   <time name="total">    2.93    2.97</time>
   <energy>
    <i name="e_fr_energy">   -858.73156859 </i>
    <i name="e_wo_entrp">   -858.73156859 </i>
    <i name="e_0_energy">   -858.73156859 </i>
   </energy>
  </scstep>
  <scstep>
   <time name="dav">    2.35    2.37</time>
   <time name="total">    2.96    3.01</time>
   <energy>
    <i name="e_fr_energy">   -850.19354596 </i>
    <i name="e_wo_entrp">   -850.19354596 </i>
    <i name="e_0_energy">   -850.19354596 </i>
   </energy>
  </scstep>
  <scstep>
   <time name="dav">    2.28    2.30</time>
   <time name="total">    2.89    2.93</time>
   <energy>
    <i name="e_fr_energy">   -845.92679669 </i>
    <i name="e_wo_entrp">   -845.92679580 </i>
    <i name="e_0_energy">   -845.92679624 </i>
   </energy>
  </scstep>
  <scstep>
   <time name="dav">    2.31    2.33</time>
   <time name="total">    2.91    2.96</time>
   <energy>
    <i name="e_fr_energy">   -845.80125606 </i>
    <i name="e_wo_entrp">   -845.80125606 </i>
    <i name="e_0_energy">   -845.80125606 </i>
   </energy>
  </scstep>
  <scstep>
   <time name="dav">    2.38    2.40</time>
   <time name="total">    2.99    3.02</time>
   <energy>
    <i name="e_fr_energy">   -845.64030957 </i>
    <i name="e_wo_entrp">   -845.64030957 </i>
    <i name="e_0_energy">   -845.64030957 </i>
   </energy>
  </scstep>
  <scstep>
   <time name="dav">    2.25    2.27</time>
   <time name="total">    2.86    2.89</time>
   <energy>
    <i name="e_fr_energy">   -845.58972799 </i>
    <i name="e_wo_entrp">   -845.58972799 </i>
    <i name="e_0_energy">   -845.58972799 </i>
   </energy>
  </scstep>
  <scstep>
   <time name="dav">    2.28    2.31</time>
   <time name="total">    2.90    2.93</time>
   <energy>
    <i name="e_fr_energy">   -845.57709697 </i>
    <i name="e_wo_entrp">   -845.57709697 </i>
    <i name="e_0_energy">   -845.57709697 </i>
   </energy>
  </scstep>
  <scstep>
   <time name="dav">    2.20    2.22</time>
   <time name="total">    2.82    2.85</time>
   <energy>
    <i name="e_fr_energy">   -845.57644528 </i>
    <i name="e_wo_entrp">   -845.57644528 </i>
    <i name="e_0_energy">   -845.57644528 </i>
   </energy>
  </scstep>
  <scstep>
   <time name="dav">    2.23    2.25</time>
   <time name="total">    2.84    2.88</time>
   <energy>
    <i name="e_fr_energy">   -845.58199319 </i>
    <i name="e_wo_entrp">   -845.58199319 </i>
    <i name="e_0_energy">   -845.58199319 </i>
   </energy>
  </scstep>
  <scstep>
   <time name="dav">    2.22    2.24</time>
   <time name="total">    2.83    2.87</time>
   <energy>
    <i name="e_fr_energy">   -845.60495597 </i>
    <i name="e_wo_entrp">   -845.60495597 </i>
    <i name="e_0_energy">   -845.60495597 </i>
   </energy>
  </scstep>
  <scstep>
   <time name="dav">    2.16    2.18</time>
   <time name="total">    2.77    2.80</time>
   <energy>
    <i name="e_fr_energy">   -845.63081803 </i>
    <i name="e_wo_entrp">   -845.63081803 </i>
    <i name="e_0_energy">   -845.63081803 </i>
   </energy>
  </scstep>
  <scstep>
   <time name="dav">    2.23    2.25</time>
   <time name="total">    2.84    2.88</time>
   <energy>
    <i name="e_fr_energy">   -845.64465700 </i>
    <i name="e_wo_entrp">   -845.64465700 </i>
    <i name="e_0_energy">   -845.64465700 </i>
   </energy>
  </scstep>
  <scstep>
   <time name="dav">    2.26    2.27</time>
   <time name="total">    2.87    2.90</time>
   <energy>
    <i name="e_fr_energy">   -845.65022193 </i>
    <i name="e_wo_entrp">   -845.65022193 </i>
    <i name="e_0_energy">   -845.65022193 </i>
   </energy>
  </scstep>
  <scstep>
   <time name="dav">    2.24    2.26</time>
   <time name="total">    2.86    2.89</time>
   <energy>
    <i name="e_fr_energy">   -845.65236227 </i>
    <i name="e_wo_entrp">   -845.65236227 </i>
    <i name="e_0_energy">   -845.65236227 </i>
   </energy>
  </scstep>
  <scstep>
   <time name="dav">    2.26    2.28</time>
   <time name="total">    2.87    2.90</time>
   <energy>
    <i name="e_fr_energy">   -845.65316513 </i>
    <i name="e_wo_entrp">   -845.65316513 </i>
    <i name="e_0_energy">   -845.65316513 </i>
   </energy>
  </scstep>
  <scstep>
   <time name="dav">    2.28    2.30</time>
   <time name="total">    2.89    2.92</time>
   <energy>
    <i name="e_fr_energy">   -845.65345521 </i>
    <i name="e_wo_entrp">   -845.65345521 </i>
    <i name="e_0_energy">   -845.65345521 </i>
   </energy>
  </scstep>
  <scstep>
   <time name="dav">    2.18    2.20</time>
   <time name="total">    2.79    2.83</time>
   <energy>
    <i name="e_fr_energy">   -845.65363713 </i>
    <i name="e_wo_entrp">   -845.65363713 </i>
    <i name="e_0_energy">   -845.65363713 </i>
   </energy>
  </scstep>
  <scstep>
   <time name="dav">    2.18    2.20</time>
   <time name="total">    2.77    2.82</time>
   <energy>
    <i name="e_fr_energy">   -845.65375008 </i>
    <i name="e_wo_entrp">   -845.65375008 </i>
    <i name="e_0_energy">   -845.65375008 </i>
   </energy>
  </scstep>
  <scstep>
   <time name="dav">    2.26    2.28</time>
   <time name="total">    2.87    2.90</time>
   <energy>
    <i name="e_fr_energy">   -845.65381994 </i>
    <i name="e_wo_entrp">   -845.65381994 </i>
    <i name="e_0_energy">   -845.65381994 </i>
   </energy>
  </scstep>
  <scstep>
   <time name="dav">    2.26    2.27</time>
   <time name="total">    2.87    2.91</time>
   <energy>
    <i name="e_fr_energy">   -845.65385254 </i>
    <i name="e_wo_entrp">   -845.65385254 </i>
    <i name="e_0_energy">   -845.65385254 </i>
   </energy>
  </scstep>
  <scstep>
   <time name="dav">    2.27    2.29</time>
   <time name="total">    2.88    2.92</time>
   <energy>
    <i name="e_fr_energy">   -845.65387009 </i>
    <i name="e_wo_entrp">   -845.65387009 </i>
    <i name="e_0_energy">   -845.65387009 </i>
   </energy>
  </scstep>
  <scstep>
   <time name="dav">    2.28    2.30</time>
   <time name="total">    2.89    2.93</time>
   <energy>
    <i name="e_fr_energy">   -845.65387595 </i>
    <i name="e_wo_entrp">   -845.65387595 </i>
    <i name="e_0_energy">   -845.65387595 </i>
   </energy>
  </scstep>
  <scstep>
   <time name="dav">    1.99    2.00</time>
   <time name="total">    2.61    2.63</time>
   <energy>
    <i name="e_fr_energy">   -845.65387783 </i>
    <i name="e_wo_entrp">   -845.65387783 </i>
    <i name="e_0_energy">   -845.65387783 </i>
   </energy>
  </scstep>
  <scstep>
   <time name="dav">    1.94    1.95</time>
   <time name="total">    2.55    2.59</time>
   <energy>
    <i name="e_fr_energy">   -845.65387876 </i>
    <i name="e_wo_entrp">   -845.65387876 </i>
    <i name="e_0_energy">   -845.65387876 </i>
   </energy>
  </scstep>
  <scstep>
   <time name="dav">    1.70    1.72</time>
   <time name="total">    2.33    2.35</time>
   <energy>
    <i name="e_fr_energy">   -845.65387892 </i>
    <i name="e_wo_entrp">   -845.65387892 </i>
    <i name="e_0_energy">   -845.65387892 </i>
   </energy>
  </scstep>
  <scstep>
   <time name="dav">    1.67    1.68</time>
   <time name="total">    2.31    2.33</time>
   <energy>
    <i name="e_fr_energy">   -845.65387900 </i>
    <i name="e_wo_entrp">   -845.65387900 </i>
    <i name="e_0_energy">   -845.65387900 </i>
   </energy>
  </scstep>
  <scstep>
   <time name="dav">    1.77    1.78</time>
   <time name="total">    2.40    2.43</time>
   <energy>
    <i name="e_fr_energy">   -845.65387902 </i>
    <i name="e_wo_entrp">   -845.65387902 </i>
    <i name="e_0_energy">   -845.65387902 </i>
   </energy>
  </scstep>
  <scstep>
   <time name="dav">    1.74    1.76</time>
   <time name="total">    2.12    2.14</time>
   <energy>
    <i name="alphaZ">    156.50993408 </i>
    <i name="ewald">  58206.77228100 </i>
    <i name="hartreedc"> -72314.27829029 </i>
    <i name="XCdc">   1369.72377465 </i>
    <i name="pawpsdc">  44018.75630347 </i>
    <i name="pawaedc"> -44054.09813170 </i>
    <i name="eentropy">     -0.00000000 </i>
    <i name="bandstr">  -4489.97855163 </i>
    <i name="atom">  16260.93880140 </i>
    <i name="e_fr_energy">   -845.65387902 </i>
    <i name="e_wo_entrp">   -845.65387902 </i>
    <i name="e_0_energy">   -845.65387902 </i>
   </energy>
  </scstep>
  <structure>
   <crystal>
    <varray name="basis" >
     <v>      17.59966831       0.00000000       0.00000000 </v>
     <v>      -8.79983416      15.24175986       0.00000000 </v>
     <v>       0.00000000       0.00000000      19.92151445 </v>
    </varray>
    <i name="volume">   5343.94461817 </i>
    <varray name="rec_basis" >
     <v>       0.05681925       0.03280461       0.00000000 </v>
     <v>       0.00000000       0.06560922       0.00000000 </v>
     <v>       0.00000000       0.00000000       0.05019699 </v>
    </varray>
   </crystal>
   <varray name="positions" >
    <v>       0.99943010       0.00005992       0.50000000 </v>
    <v>       0.14164706       0.99871895       0.50000000 </v>
    <v>       0.28492260       0.99841663       0.50000000 </v>
    <v>       0.42850047       0.99871895       0.50000000 </v>
    <v>       0.57205839       0.00005992       0.50000000 </v>
    <v>       0.71530655       0.00214292       0.50000000 </v>
    <v>       0.85826494       0.00214292       0.50000000 </v>
    <v>       0.00080792       0.14408264       0.50000000 </v>
    <v>       0.14259355       0.14244783       0.50000000 </v>
    <v>       0.28470221       0.14112972       0.50000000 </v>
    <v>       0.42785608       0.14112972       0.50000000 </v>
    <v>       0.57128286       0.14244783       0.50000000 </v>
    <v>       0.71470329       0.14408264       0.50000000 </v>
    <v>       0.85805263       0.14467669       0.50000000 </v>
    <v>       0.00095476       0.28713011       0.50000000 </v>
    <v>       0.14372552       0.28645370       0.50000000 </v>
    <v>       0.28540977       0.28469374       0.50000000 </v>
    <v>       0.42724431       0.28306005       0.50000000 </v>
    <v>       0.57071254       0.28469374       0.50000000 </v>
    <v>       0.71415674       0.28645370       0.50000000 </v>
    <v>       0.85760392       0.28713011       0.50000000 </v>
    <v>       0.00054479       0.42966101       0.50000000 </v>
    <v>       0.14422690       0.42957551       0.50000000 </v>
    <v>       0.28730213       0.42918005       0.50000000 </v>
    <v>       0.42797654       0.42569726       0.50000000 </v>
    <v>       0.56914930       0.42569726       0.50000000 </v>
    <v>       0.71330650       0.42918005       0.50000000 </v>
    <v>       0.85677719       0.42957551       0.50000000 </v>
    <v>       0.99928255       0.57181462       0.50000000 </v>
    <v>       0.14396064       0.57181462       0.50000000 </v>
    <v>       0.28862787       0.57181625       0.50000000 </v>
    <v>       0.43313209       0.57215564       0.50000000 </v>
    <v>       0.71045212       0.57215564       0.50000000 </v>
    <v>       0.85461695       0.57181625       0.50000000 </v>
    <v>       0.99707234       0.71370518       0.50000000 </v>
    <v>       0.14255519       0.71368182       0.50000000 </v>
    <v>       0.28806142       0.71370518       0.50000000 </v>
    <v>       0.43464191       0.71382540       0.50000000 </v>
    <v>       0.58510826       0.71626937       0.50000000 </v>
    <v>       0.70258968       0.71626937       0.50000000 </v>
    <v>       0.85061206       0.71382540       0.50000000 </v>
    <v>       0.99777175       0.85613493       0.50000000 </v>
    <v>       0.14160898       0.85591288       0.50000000 </v>
    <v>       0.28573247       0.85591288       0.50000000 </v>
    <v>       0.42979175       0.85613493       0.50000000 </v>
    <v>       0.57342541       0.85758690       0.50000000 </v>
    <v>       0.71640633       0.86138410       0.50000000 </v>
    <v>       0.85559006       0.85758690       0.50000000 </v>
    <v>       0.04754270       0.09547788       0.50000000 </v>
    <v>       0.18957833       0.09405657       0.50000000 </v>
    <v>       0.33254182       0.09365506       0.50000000 </v>
    <v>       0.47590681       0.09405657       0.50000000 </v>
    <v>       0.61936376       0.09547788       0.50000000 </v>
    <v>       0.76280004       0.09719274       0.50000000 </v>
    <v>       0.90582126       0.09719274       0.50000000 </v>
    <v>       0.04854983       0.23934281       0.50000000 </v>
    <v>       0.19048138       0.23782962       0.50000000 </v>
    <v>       0.33234878       0.23634667       0.50000000 </v>
    <v>       0.47542646       0.23634667       0.50000000 </v>
    <v>       0.61877681       0.23782962       0.50000000 </v>
    <v>       0.76222155       0.23934281       0.50000000 </v>
    <v>       0.90562797       0.23982737       0.50000000 </v>
    <v>       0.04871288       0.38232824       0.50000000 </v>
    <v>       0.19151321       0.38184213       0.49962381 </v>
    <v>       0.33352206       0.38013969       0.50000000 </v>
    <v>       0.47472270       0.37801683       0.50000000 </v>
    <v>       0.61804620       0.38013969       0.50000000 </v>
    <v>       0.76138130       0.38184213       0.50000000 </v>
    <v>       0.90504393       0.38232824       0.50000000 </v>
    <v>       0.04810654       0.52478452       0.50000000 </v>
    <v>       0.19263929       0.52476864       0.50000000 </v>
    <v>       0.33696521       0.52455433       0.50000000 </v>
    <v>       0.47833704       0.52146721       0.50000000 </v>
    <v>       0.61455874       0.52146721       0.50000000 </v>
    <v>       0.75901769       0.52455433       0.50000000 </v>
    <v>       0.90355792       0.52476864       0.50000000 </v>
    <v>       0.04642473       0.66685228       0.50000000 </v>
    <v>       0.19185612       0.66685228       0.50000000 </v>
    <v>       0.33777931       0.66688794       0.50000000 </v>
    <v>       0.48615700       0.66710760       0.50000000 </v>
    <v>       0.75237918       0.66710760       0.50000000 </v>
    <v>       0.90053720       0.66688794       0.50000000 </v>
    <v>       0.04582562       0.80879365       0.50000000 </v>
    <v>       0.19009580       0.80876303       0.50000000 </v>
    <v>       0.33439660       0.80879365       0.50000000 </v>
    <v>       0.47844872       0.80897069       0.50000000 </v>
    <v>       0.62209487       0.81129474       0.50000000 </v>
    <v>       0.76062845       0.81129474       0.50000000 </v>
    <v>       0.90195054       0.80897069       0.50000000 </v>
    <v>       0.04629157       0.95154386       0.50000000 </v>
    <v>       0.18948291       0.95113037       0.50000000 </v>
    <v>       0.33307603       0.95113037       0.50000000 </v>
    <v>       0.47668087       0.95154386       0.50000000 </v>
    <v>       0.62015751       0.95313740       0.50000000 </v>
    <v>       0.76355772       0.95568687       0.50000000 </v>
    <v>       0.90440847       0.95313740       0.50000000 </v>
    <v>       0.56830873       0.56518888       0.50000000 </v>
   </varray>
  </structure>
  <varray name="forces" >
   <v>      -0.03988424      -0.02644149      -0.00018786 </v>
   <v>      -0.02222824      -0.01129583      -0.00013807 </v>
   <v>       0.00019214      -0.01408764      -0.00001052 </v>
   <v>       0.02203856      -0.01013377      -0.00001181 </v>
   <v>       0.03977661      -0.02609281      -0.00001316 </v>
   <v>      -0.03350216      -0.04847631      -0.00001193 </v>
   <v>       0.03333353      -0.04799668      -0.00015234 </v>
   <v>      -0.00974882      -0.02282045       0.00211357 </v>
   <v>      -0.03087448      -0.02948452       0.00206433 </v>
   <v>      -0.00740339      -0.03634024      -0.00004729 </v>
   <v>       0.00857605      -0.03465318      -0.00001662 </v>
   <v>       0.02800508      -0.02559714      -0.00001174 </v>
   <v>       0.00689217      -0.02603665      -0.00001561 </v>
   <v>       0.00038030      -0.03866311      -0.00004689 </v>
   <v>      -0.00693176      -0.02019184      -0.00154004 </v>
   <v>      -0.04842555      -0.04416519      -0.03780836 </v>
   <v>      -0.02925932      -0.01183014      -0.00152356 </v>
   <v>       0.00241200      -0.09537536      -0.00002824 </v>
   <v>       0.03231531      -0.00300952      -0.00000798 </v>
   <v>      -0.00351078      -0.04431319      -0.00000984 </v>
   <v>       0.01110651      -0.02816821      -0.00004683 </v>
   <v>       0.00640285       0.00084564       0.00209877 </v>
   <v>      -0.14583476       0.03818803      -0.03728845 </v>
   <v>      -0.05952968      -0.17359023      -0.03872346 </v>
   <v>      -0.10545436      -0.19381324       0.00200264 </v>
   <v>       0.11445631      -0.19972461      -0.00022238 </v>
   <v>      -0.05526526      -0.13851225      -0.00000532 </v>
   <v>       0.02806468      -0.00195968      -0.00013921 </v>
   <v>       0.01970293       0.02723401      -0.00018410 </v>
   <v>      -0.01334533       0.02535952       0.00210736 </v>
   <v>      -0.09980196       0.12797407      -0.00154276 </v>
   <v>       0.05442729       0.40023259       0.00201640 </v>
   <v>      -0.04832199       0.39751303       0.00002448 </v>
   <v>       0.08758696       0.12776907      -0.00000137 </v>
   <v>      -0.00729848       0.02161744       0.00000212 </v>
   <v>       0.00058732       0.02653240      -0.00015121 </v>
   <v>       0.00635268       0.02127729      -0.00005186 </v>
   <v>       0.08446657       0.04397262      -0.00004486 </v>
   <v>       1.36478090       1.25196346      -0.00025506 </v>
   <v>      -1.36364985       1.25150457      -0.00011943 </v>
   <v>      -0.08546113       0.04307464      -0.00001531 </v>
   <v>      -0.04628727      -0.00824252      -0.00000120 </v>
   <v>      -0.01251861      -0.00532244      -0.00000481 </v>
   <v>       0.01255698      -0.00515143      -0.00001098 </v>
   <v>       0.04593999      -0.00783186      -0.00001690 </v>
   <v>       0.15062137       0.03696651      -0.00000006 </v>
   <v>       0.00025801      -0.25147537       0.00000567 </v>
   <v>      -0.15061276       0.03668577       0.00001330 </v>
   <v>       0.02965260       0.03209492      -0.00042100 </v>
   <v>       0.01095088       0.02620878      -0.00027371 </v>
   <v>      -0.00083185       0.02882532       0.00006099 </v>
   <v>      -0.01163967       0.02381513       0.00000864 </v>
   <v>      -0.02755031       0.03174687       0.00000833 </v>
   <v>      -0.01355719       0.02569329       0.00006676 </v>
   <v>       0.01278606       0.02412504      -0.00029196 </v>
   <v>       0.01819118       0.01431472       0.00801195 </v>
   <v>      -0.00619578       0.02404929       0.00769827 </v>
   <v>       0.01316152       0.03916823      -0.00041703 </v>
   <v>      -0.01776288       0.03691108       0.00006227 </v>
   <v>       0.00685365       0.00353851       0.00000566 </v>
   <v>      -0.01841844       0.03466089       0.00006111 </v>
   <v>      -0.00293632       0.02780177      -0.00042255 </v>
   <v>      -0.01950169       0.02819444       0.00785476 </v>
   <v>       0.40157255       0.05527530       0.06377995 </v>
   <v>      -0.05332764      -0.20192605       0.00799819 </v>
   <v>      -0.00465969       0.11066892      -0.00029409 </v>
   <v>       0.01933243      -0.19964687       0.00002541 </v>
   <v>      -0.05034687       0.05962686       0.00003835 </v>
   <v>      -0.01581364       0.02640775      -0.00029192 </v>
   <v>      -0.00292788       0.01238521      -0.00041391 </v>
   <v>       0.02765274       0.01005668       0.00812324 </v>
   <v>       0.19167270       0.09579433       0.00761308 </v>
   <v>       1.01991380      -1.56667590      -0.00049147 </v>
   <v>      -1.02572867      -1.56350507      -0.00004292 </v>
   <v>      -0.19213785       0.11257444       0.00000025 </v>
   <v>      -0.02791398      -0.00635037       0.00006165 </v>
   <v>       0.00876268      -0.03162390       0.00006521 </v>
   <v>      -0.00958537      -0.03029643      -0.00031406 </v>
   <v>      -0.05571305      -0.06649676      -0.00038478 </v>
   <v>      -0.27041595       0.00654127      -0.00034750 </v>
   <v>       0.26952916       0.00851735      -0.00000452 </v>
   <v>       0.05781682      -0.06612931       0.00000829 </v>
   <v>       0.03601152      -0.01222004       0.00000359 </v>
   <v>      -0.00013075      -0.00996138       0.00003518 </v>
   <v>      -0.03574445      -0.01224911       0.00006102 </v>
   <v>      -0.08471261      -0.01398042       0.00005875 </v>
   <v>      -0.88619036       0.24250852       0.00012768 </v>
   <v>       0.88584299       0.24304457       0.00006311 </v>
   <v>       0.08499764      -0.01344428       0.00000667 </v>
   <v>       0.03227619       0.01762322       0.00006220 </v>
   <v>       0.00986181      -0.00240007       0.00003115 </v>
   <v>      -0.01027350      -0.00279385       0.00000482 </v>
   <v>      -0.03198091       0.01716291       0.00000873 </v>
   <v>      -0.11089457       0.11828745      -0.00000398 </v>
   <v>      -0.00015700       0.01497398       0.00001451 </v>
   <v>       0.11114691       0.11849536       0.00005892 </v>
   <v>       0.00298009      -0.11930634       0.00028550 </v>
  </varray>
  <varray name="stress" >
   <v>     -10.60518326      -0.02177764      -0.00090226 </v>
   <v>      -0.02177764       3.03711922      -0.00012441 </v>
   <v>      -0.00090226      -0.00012440      -0.42570606 </v>
  </varray>
  <energy>
   <i name="e_fr_energy">   -845.65387902 </i>
   <i name="e_wo_entrp">   -845.65387902 </i>
   <i name="e_0_energy">     -0.00000000 </i>
  </energy>
  <time name="totalsc">   98.23   99.52</time>
  <eigenvalues>
   <array>
    <dimension dim="1">band</dimension>
    <dimension dim="2">kpoint</dimension>
    <dimension dim="3">spin</dimension>
    <field>eigene</field>
    <field>occ</field>
    <set>
     <set comment="spin 1">
      <set comment="kpoint 1">
       <r>  -22.5439    1.0000 </r>
       <r>  -22.0195    1.0000 </r>
       <r>  -21.7738    1.0000 </r>
       <r>  -21.7438    1.0000 </r>
       <r>  -21.6955    1.0000 </r>
       <r>  -21.6545    1.0000 </r>
       <r>  -21.6175    1.0000 </r>
       <r>  -21.2363    1.0000 </r>
       <r>  -21.0708    1.0000 </r>
       <r>  -21.0049    1.0000 </r>
       <r>  -20.9697    1.0000 </r>
       <r>  -20.9267    1.0000 </r>
       <r>  -20.8752    1.0000 </r>
       <r>  -20.7444    1.0000 </r>
       <r>  -20.7026    1.0000 </r>
       <r>  -20.6632    1.0000 </r>
       <r>  -20.5939    1.0000 </r>
       <r>  -20.5681    1.0000 </r>
       <r>  -20.4286    1.0000 </r>
       <r>  -19.9808    1.0000 </r>
       <r>  -19.9258    1.0000 </r>
       <r>  -19.8054    1.0000 </r>
       <r>  -19.7642    1.0000 </r>
       <r>  -19.7364    1.0000 </r>
       <r>  -19.7361    1.0000 </r>
       <r>  -19.7057    1.0000 </r>
       <r>  -19.6984    1.0000 </r>
       <r>  -19.6433    1.0000 </r>
       <r>  -19.6387    1.0000 </r>
       <r>  -19.6299    1.0000 </r>
       <r>  -19.4928    1.0000 </r>
       <r>  -19.4077    1.0000 </r>
       <r>  -19.3636    1.0000 </r>
       <r>  -19.3559    1.0000 </r>
       <r>  -19.2881    1.0000 </r>
       <r>  -19.2392    1.0000 </r>
       <r>  -19.1080    1.0000 </r>
       <r>  -18.9998    1.0000 </r>
       <r>  -18.9320    1.0000 </r>
       <r>  -18.8765    1.0000 </r>
       <r>  -18.8532    1.0000 </r>
       <r>  -18.8374    1.0000 </r>
       <r>  -18.7657    1.0000 </r>
       <r>  -18.7493    1.0000 </r>
       <r>  -18.7253    1.0000 </r>
       <r>  -18.7129    1.0000 </r>
       <r>  -18.6936    1.0000 </r>
       <r>  -18.4451    1.0000 </r>
       <r>  -14.1436    1.0000 </r>
       <r>  -13.1840    1.0000 </r>
       <r>  -13.1579    1.0000 </r>
       <r>  -13.1104    1.0000 </r>
       <r>  -13.1038    1.0000 </r>
       <r>  -13.0789    1.0000 </r>
       <r>  -13.0157    1.0000 </r>
       <r>  -12.9588    1.0000 </r>
       <r>  -12.9498    1.0000 </r>
       <r>  -12.9336    1.0000 </r>
       <r>  -12.8052    1.0000 </r>
       <r>  -12.7688    1.0000 </r>
       <r>  -12.6022    1.0000 </r>
       <r>  -12.5035    1.0000 </r>
       <r>  -12.4856    1.0000 </r>
       <r>  -12.3783    1.0000 </r>
       <r>  -12.3081    1.0000 </r>
       <r>  -12.2970    1.0000 </r>
       <r>  -12.1743    1.0000 </r>
       <r>  -11.9014    1.0000 </r>
       <r>  -11.8857    1.0000 </r>
       <r>  -11.7676    1.0000 </r>
       <r>  -11.7646    1.0000 </r>
       <r>  -11.7507    1.0000 </r>
       <r>  -11.7416    1.0000 </r>
       <r>  -11.6933    1.0000 </r>
       <r>  -11.6583    1.0000 </r>
       <r>  -11.6309    1.0000 </r>
       <r>  -11.5407    1.0000 </r>
       <r>  -11.4228    1.0000 </r>
       <r>  -11.2006    1.0000 </r>
       <r>  -11.1234    1.0000 </r>
       <r>  -11.0842    1.0000 </r>
       <r>  -11.0581    1.0000 </r>
       <r>  -10.9656    1.0000 </r>
       <r>  -10.9126    1.0000 </r>
       <r>  -10.6847    1.0000 </r>
       <r>  -10.4616    1.0000 </r>
       <r>  -10.4301    1.0000 </r>
       <r>  -10.3504    1.0000 </r>
       <r>  -10.2550    1.0000 </r>
       <r>  -10.2065    1.0000 </r>
       <r>   -9.8905    1.0000 </r>
       <r>   -9.7699    1.0000 </r>
       <r>   -9.7646    1.0000 </r>
       <r>   -9.7253    1.0000 </r>
       <r>   -9.6759    1.0000 </r>
       <r>   -9.5880    1.0000 </r>
       <r>   -9.5409    1.0000 </r>
       <r>   -9.4975    1.0000 </r>
       <r>   -9.4639    1.0000 </r>
       <r>   -9.3530    1.0000 </r>
       <r>   -9.3465    1.0000 </r>
       <r>   -9.2885    1.0000 </r>
       <r>   -9.2624    1.0000 </r>
       <r>   -9.2559    1.0000 </r>
       <r>   -9.2514    1.0000 </r>
       <r>   -9.2393    1.0000 </r>
       <r>   -9.2249    1.0000 </r>
       <r>   -9.2237    1.0000 </r>
       <r>   -9.2077    1.0000 </r>
       <r>   -9.2002    1.0000 </r>
       <r>   -9.1987    1.0000 </r>
       <r>   -9.1973    1.0000 </r>
       <r>   -9.1543    1.0000 </r>
       <r>   -9.1341    1.0000 </r>
       <r>   -9.1114    1.0000 </r>
       <r>   -9.1092    1.0000 </r>
       <r>   -9.0995    1.0000 </r>
       <r>   -9.0437    1.0000 </r>
       <r>   -8.9934    1.0000 </r>
       <r>   -8.8447    1.0000 </r>
       <r>   -8.7952    1.0000 </r>
       <r>   -8.6540    1.0000 </r>
       <r>   -8.5077    1.0000 </r>
       <r>   -8.4813    1.0000 </r>
       <r>   -8.4413    1.0000 </r>
       <r>   -8.3277    1.0000 </r>
       <r>   -8.2238    1.0000 </r>
       <r>   -8.2034    1.0000 </r>
       <r>   -8.1979    1.0000 </r>
       <r>   -8.1711    1.0000 </r>
       <r>   -8.1503    1.0000 </r>
       <r>   -8.1229    1.0000 </r>
       <r>   -8.0376    1.0000 </r>
       <r>   -7.9715    1.0000 </r>
       <r>   -7.9511    1.0000 </r>
       <r>   -7.8700    1.0000 </r>
       <r>   -7.8465    1.0000 </r>
       <r>   -7.8428    1.0000 </r>
       <r>   -7.8009    1.0000 </r>
       <r>   -7.7993    1.0000 </r>
       <r>   -7.7975    1.0000 </r>
       <r>   -7.7377    1.0000 </r>
       <r>   -7.7339    1.0000 </r>
       <r>   -7.7123    1.0000 </r>
       <r>   -7.6776    1.0000 </r>
       <r>   -7.6756    1.0000 </r>
       <r>   -7.6640    1.0000 </r>
       <r>   -7.6377    1.0000 </r>
       <r>   -7.6312    1.0000 </r>
       <r>   -7.4423    1.0000 </r>
       <r>   -7.4408    1.0000 </r>
       <r>   -7.4281    1.0000 </r>
       <r>   -7.3843    1.0000 </r>
       <r>   -7.3600    1.0000 </r>
       <r>   -7.2708    1.0000 </r>
       <r>   -6.8313    1.0000 </r>
       <r>   -6.7589    1.0000 </r>
       <r>   -6.6176    1.0000 </r>
       <r>   -6.6079    1.0000 </r>
       <r>   -6.5415    1.0000 </r>
       <r>   -6.5391    1.0000 </r>
       <r>   -6.5019    1.0000 </r>
       <r>   -6.4897    1.0000 </r>
       <r>   -6.4588    1.0000 </r>
       <r>   -6.4582    1.0000 </r>
       <r>   -6.4403    1.0000 </r>
       <r>   -6.4390    1.0000 </r>
       <r>   -6.4087    1.0000 </r>
       <r>   -6.4040    1.0000 </r>
       <r>   -6.3591    1.0000 </r>
       <r>   -6.3459    1.0000 </r>
       <r>   -6.3178    1.0000 </r>
       <r>   -6.1109    1.0000 </r>
       <r>   -5.9693    1.0000 </r>
       <r>   -5.9248    1.0000 </r>
       <r>   -5.8858    1.0000 </r>
       <r>   -5.8802    1.0000 </r>
       <r>   -5.8619    1.0000 </r>
       <r>   -5.7796    1.0000 </r>
       <r>   -5.7794    1.0000 </r>
       <r>   -5.5281    1.0000 </r>
       <r>   -5.2213    1.0000 </r>
       <r>   -5.1989    1.0000 </r>
       <r>   -5.1971    1.0000 </r>
       <r>   -5.1403    1.0000 </r>
       <r>   -5.1334    1.0000 </r>
       <r>   -5.1039    1.0000 </r>
       <r>   -4.9996    1.0000 </r>
       <r>   -4.9449    1.0000 </r>
       <r>   -4.9160    1.0000 </r>
       <r>   -4.9057    1.0000 </r>
       <r>   -4.8984    1.0000 </r>
       <r>   -4.7320    1.0000 </r>
       <r>   -1.3177    1.0000 </r>
       <r>   -1.2045    0.0000 </r>
       <r>    0.0576    0.0000 </r>
       <r>    0.2049    0.0000 </r>
       <r>    0.2398    0.0000 </r>
       <r>    0.2568    0.0000 </r>
       <r>    0.2605    0.0000 </r>
       <r>    0.3032    0.0000 </r>
       <r>    0.3045    0.0000 </r>
       <r>    0.3796    0.0000 </r>
       <r>    0.3941    0.0000 </r>
       <r>    0.4357    0.0000 </r>
       <r>    0.4799    0.0000 </r>
       <r>    0.5265    0.0000 </r>
       <r>    0.6098    0.0000 </r>
       <r>    0.7471    0.0000 </r>
       <r>    0.7485    0.0000 </r>
       <r>    0.7785    0.0000 </r>
       <r>    0.8059    0.0000 </r>
       <r>    0.8121    0.0000 </r>
       <r>    0.8294    0.0000 </r>
       <r>    0.8385    0.0000 </r>
       <r>    0.8585    0.0000 </r>
       <r>    0.8711    0.0000 </r>
       <r>    0.9788    0.0000 </r>
       <r>    1.0198    0.0000 </r>
       <r>    1.0610    0.0000 </r>
       <r>    1.1188    0.0000 </r>
       <r>    1.4953    0.0000 </r>
       <r>    1.6728    0.0000 </r>
       <r>    1.6969    0.0000 </r>
       <r>    1.7064    0.0000 </r>
       <r>    1.7247    0.0000 </r>
       <r>    1.7399    0.0000 </r>
       <r>    1.7451    0.0000 </r>
       <r>    1.8039    0.0000 </r>
       <r>    1.8077    0.0000 </r>
       <r>    1.8455    0.0000 </r>
       <r>    1.8473    0.0000 </r>
       <r>    1.8770    0.0000 </r>
       <r>    1.8818    0.0000 </r>
       <r>    1.9072    0.0000 </r>
       <r>    1.9079    0.0000 </r>
       <r>    1.9290    0.0000 </r>
       <r>    1.9831    0.0000 </r>
       <r>    2.0300    0.0000 </r>
       <r>    2.1059    0.0000 </r>
       <r>    2.1087    0.0000 </r>
       <r>    2.1270    0.0000 </r>
       <r>    2.1335    0.0000 </r>
       <r>    2.1405    0.0000 </r>
      </set>
     </set>
    </set>
   </array>
  </eigenvalues>
  <separator name="orbital magnetization" >
   <v name="MAGDIPOLOUT">      0.00000000      0.00000000      0.00000000</v>
  </separator>
  <dos>
   <i name="efermi">     -1.25254494 </i>
   <total>
    <array>
     <dimension dim="1">gridpoints</dimension>
     <dimension dim="2">spin</dimension>
     <field>energy</field>
     <field>total</field>
     <field>integrated</field>
     <set>
      <set comment="spin 1">
       <r>   -23.7781     0.0000     0.0000 </r>
       <r>   -23.6876     0.0000     0.0000 </r>
       <r>   -23.5971     0.0000     0.0000 </r>
       <r>   -23.5066     0.0000     0.0000 </r>
       <r>   -23.4161     0.0000     0.0000 </r>
       <r>   -23.3256     0.0000     0.0000 </r>
       <r>   -23.2351     0.0000     0.0000 </r>
       <r>   -23.1446     0.0000     0.0000 </r>
       <r>   -23.0541     0.0000     0.0000 </r>
       <r>   -22.9636     0.0000     0.0000 </r>
       <r>   -22.8731     0.0000     0.0000 </r>
       <r>   -22.7825     0.0000     0.0000 </r>
       <r>   -22.6920     0.0000     0.0000 </r>
       <r>   -22.6015     0.0000     0.0000 </r>
       <r>   -22.5110    22.0970     2.0000 </r>
       <r>   -22.4205     0.0000     2.0000 </r>
       <r>   -22.3300     0.0000     2.0000 </r>
       <r>   -22.2395     0.0000     2.0000 </r>
       <r>   -22.1490     0.0000     2.0000 </r>
       <r>   -22.0585     0.0000     2.0000 </r>
       <r>   -21.9680    22.0971     4.0000 </r>
       <r>   -21.8774     0.0000     4.0000 </r>
       <r>   -21.7869     0.7034     4.0637 </r>
       <r>   -21.6964    53.4194     8.8986 </r>
       <r>   -21.6059    43.0711    13.8984 </r>
       <r>   -21.5154     0.0000    14.0000 </r>
       <r>   -21.4249     0.0000    14.0000 </r>
       <r>   -21.3344     0.0000    14.0000 </r>
       <r>   -21.2439     3.1178    14.2822 </r>
       <r>   -21.1534     0.0000    16.0000 </r>
       <r>   -21.0629    19.2008    17.7379 </r>
       <r>   -20.9723    29.8996    20.7062 </r>
       <r>   -20.8818    25.9223    24.3462 </r>
       <r>   -20.7913     0.0000    26.0000 </r>
       <r>   -20.7008    35.2978    29.1948 </r>
       <r>   -20.6103    22.3210    32.0203 </r>
       <r>   -20.5198    43.9703    36.0000 </r>
       <r>   -20.4293    10.1613    36.9197 </r>
       <r>   -20.3388     0.0000    38.0000 </r>
       <r>   -20.2483     0.0000    38.0000 </r>
       <r>   -20.1578     0.0000    38.0000 </r>
       <r>   -20.0672     0.0000    38.0000 </r>
       <r>   -19.9767    15.8792    39.4372 </r>
       <r>   -19.8862    22.0971    42.0000 </r>
       <r>   -19.7957    20.1930    43.8277 </r>
       <r>   -19.7052    81.6448    51.3897 </r>
       <r>   -19.6147    65.9370    59.9679 </r>
       <r>   -19.5242     0.0001    60.0000 </r>
       <r>   -19.4337    22.0996    62.0002 </r>
       <r>   -19.3432    65.4561    67.9247 </r>
       <r>   -19.2527    22.7331    70.0576 </r>
       <r>   -19.1622    21.4610    72.0000 </r>
       <r>   -19.0716    22.0971    74.0000 </r>
       <r>   -18.9811    22.0062    75.9918 </r>
       <r>   -18.8906    22.6104    78.0465 </r>
       <r>   -18.8001    65.7779    84.0000 </r>
       <r>   -18.7096    81.2944    91.3579 </r>
       <r>   -18.6191    21.8320    94.0000 </r>
       <r>   -18.5286     0.0000    94.0000 </r>
       <r>   -18.4381    18.5466    95.6787 </r>
       <r>   -18.3476     0.0000    96.0000 </r>
       <r>   -18.2571     0.0000    96.0000 </r>
       <r>   -18.1665     0.0000    96.0000 </r>
       <r>   -18.0760     0.0000    96.0000 </r>
       <r>   -17.9855     0.0000    96.0000 </r>
       <r>   -17.8950     0.0000    96.0000 </r>
       <r>   -17.8045     0.0000    96.0000 </r>
       <r>   -17.7140     0.0000    96.0000 </r>
       <r>   -17.6235     0.0000    96.0000 </r>
       <r>   -17.5330     0.0000    96.0000 </r>
       <r>   -17.4425     0.0000    96.0000 </r>
       <r>   -17.3520     0.0000    96.0000 </r>
       <r>   -17.2614     0.0000    96.0000 </r>
       <r>   -17.1709     0.0000    96.0000 </r>
       <r>   -17.0804     0.0000    96.0000 </r>
       <r>   -16.9899     0.0000    96.0000 </r>
       <r>   -16.8994     0.0000    96.0000 </r>
       <r>   -16.8089     0.0000    96.0000 </r>
       <r>   -16.7184     0.0000    96.0000 </r>
       <r>   -16.6279     0.0000    96.0000 </r>
       <r>   -16.5374     0.0000    96.0000 </r>
       <r>   -16.4469     0.0000    96.0000 </r>
       <r>   -16.3564     0.0000    96.0000 </r>
       <r>   -16.2658     0.0000    96.0000 </r>
       <r>   -16.1753     0.0000    96.0000 </r>
       <r>   -16.0848     0.0000    96.0000 </r>
       <r>   -15.9943     0.0000    96.0000 </r>
       <r>   -15.9038     0.0000    96.0000 </r>
       <r>   -15.8133     0.0000    96.0000 </r>
       <r>   -15.7228     0.0000    96.0000 </r>
       <r>   -15.6323     0.0000    96.0000 </r>
       <r>   -15.5418     0.0000    96.0000 </r>
       <r>   -15.4513     0.0000    96.0000 </r>
       <r>   -15.3607     0.0000    96.0000 </r>
       <r>   -15.2702     0.0000    96.0000 </r>
       <r>   -15.1797     0.0000    96.0000 </r>
       <r>   -15.0892     0.0000    96.0000 </r>
       <r>   -14.9987     0.0000    96.0000 </r>
       <r>   -14.9082     0.0000    96.0000 </r>
       <r>   -14.8177     0.0000    96.0000 </r>
       <r>   -14.7272     0.0000    96.0000 </r>
       <r>   -14.6367     0.0000    96.0000 </r>
       <r>   -14.5462     0.0000    96.0000 </r>
       <r>   -14.4556     0.0000    96.0000 </r>
       <r>   -14.3651     0.0000    96.0000 </r>
       <r>   -14.2746     0.0000    96.0000 </r>
       <r>   -14.1841     0.0000    96.0000 </r>
       <r>   -14.0936    22.0971    98.0000 </r>
       <r>   -14.0031     0.0000    98.0000 </r>
       <r>   -13.9126     0.0000    98.0000 </r>
       <r>   -13.8221     0.0000    98.0000 </r>
       <r>   -13.7316     0.0000    98.0000 </r>
       <r>   -13.6411     0.0000    98.0000 </r>
       <r>   -13.5506     0.0000    98.0000 </r>
       <r>   -13.4600     0.0000    98.0000 </r>
       <r>   -13.3695     0.0000    98.0000 </r>
       <r>   -13.2790     0.0000    98.0000 </r>
       <r>   -13.1885     5.7810    98.5232 </r>
       <r>   -13.0980    60.9006   105.5121 </r>
       <r>   -13.0075    41.3751   109.7518 </r>
       <r>   -12.9170    66.0800   115.9809 </r>
       <r>   -12.8265     0.0292   116.0026 </r>
       <r>   -12.7360    44.1649   120.0000 </r>
       <r>   -12.6455     0.0000   120.0000 </r>
       <r>   -12.5549    22.0971   122.0000 </r>
       <r>   -12.4644    44.1630   125.9972 </r>
       <r>   -12.3739    16.2078   127.4670 </r>
       <r>   -12.2834    43.5868   131.9450 </r>
       <r>   -12.1929     0.0927   132.0084 </r>
       <r>   -12.1024    22.0043   134.0000 </r>
       <r>   -12.0119     0.0000   134.0000 </r>
       <r>   -11.9214     0.0521   134.0047 </r>
       <r>   -11.8309    44.1420   138.0000 </r>
       <r>   -11.7404    77.3001   144.9964 </r>
       <r>   -11.6498    41.6940   149.7737 </r>
       <r>   -11.5593    22.1091   152.0085 </r>
       <r>   -11.4688    22.0033   154.0000 </r>
       <r>   -11.3783    22.0971   156.0000 </r>
       <r>   -11.2878     0.0000   156.0000 </r>
       <r>   -11.1973    14.9912   157.3569 </r>
       <r>   -11.1068    21.9031   159.9824 </r>
       <r>   -11.0163    44.1788   164.0000 </r>
       <r>   -10.9258    22.7841   166.0622 </r>
       <r>   -10.8353    21.4101   168.0000 </r>
       <r>   -10.7448     0.0000   168.0000 </r>
       <r>   -10.6542    22.0969   170.0000 </r>
       <r>   -10.5637     0.0000   170.0000 </r>
       <r>   -10.4732     1.1042   170.0999 </r>
       <r>   -10.3827    43.0900   174.0000 </r>
       <r>   -10.2922    22.0970   176.0000 </r>
       <r>   -10.2017    38.6702   179.5000 </r>
       <r>   -10.1112     0.0000   180.0000 </r>
       <r>   -10.0207     0.0000   180.0000 </r>
       <r>    -9.9302     0.0000   180.0000 </r>
       <r>    -9.8397    22.0971   182.0000 </r>
       <r>    -9.7491    43.8440   185.9683 </r>
       <r>    -9.6586    44.0223   189.9852 </r>
       <r>    -9.5681    22.0426   191.9951 </r>
       <r>    -9.4776    44.7249   196.0482 </r>
       <r>    -9.3871    21.5105   198.0000 </r>
       <r>    -9.2966    46.9961   202.2536 </r>
       <r>    -9.2061   155.5283   218.0768 </r>
       <r>    -9.1156    54.4980   228.9326 </r>
       <r>    -9.0251    43.8481   235.9915 </r>
       <r>    -8.9346    22.0970   238.0000 </r>
       <r>    -8.8440    11.9076   239.0778 </r>
       <r>    -8.7535    22.0971   242.0000 </r>
       <r>    -8.6630     2.2214   242.2011 </r>
       <r>    -8.5725     0.0000   244.0000 </r>
       <r>    -8.4820    32.3205   246.9253 </r>
       <r>    -8.3915    22.0971   250.0000 </r>
       <r>    -8.3010    22.0953   251.9998 </r>
       <r>    -8.2105    25.8006   254.3352 </r>
       <r>    -8.1200    80.0961   263.3247 </r>
       <r>    -8.0295    19.3486   265.7512 </r>
       <r>    -7.9389    43.2585   269.9153 </r>
       <r>    -7.8484    35.4102   273.2050 </r>
       <r>    -7.7579    66.3451   282.0049 </r>
       <r>    -7.6674   113.0043   292.2329 </r>
       <r>    -7.5769    44.1939   298.0000 </r>
       <r>    -7.4864     0.0000   298.0000 </r>
       <r>    -7.3959    67.4237   304.1025 </r>
       <r>    -7.3054    43.0616   308.0000 </r>
       <r>    -7.2149    22.0971   310.0000 </r>
       <r>    -7.1244     0.0000   310.0000 </r>
       <r>    -7.0339     0.0000   310.0000 </r>
       <r>    -6.9433     0.0000   310.0000 </r>
       <r>    -6.8528     0.0255   310.0023 </r>
       <r>    -6.7623    29.0377   312.6305 </r>
       <r>    -6.6718     0.0000   314.0000 </r>
       <r>    -6.5813    44.1923   317.9998 </r>
       <r>    -6.4908    74.6286   324.7546 </r>
       <r>    -6.4003   123.4147   337.1702 </r>
       <r>    -6.3098    63.4741   343.7450 </r>
       <r>    -6.2193     0.0000   344.0000 </r>
       <r>    -6.1288     0.1270   344.0115 </r>
       <r>    -6.0382    21.9700   346.0000 </r>
       <r>    -5.9477    22.0847   347.9989 </r>
       <r>    -5.8572    82.7539   355.4912 </r>
       <r>    -5.7667    42.6490   359.8601 </r>
       <r>    -5.6762     0.0000   360.0000 </r>
       <r>    -5.5857     0.0000   360.0000 </r>
       <r>    -5.4952    22.0970   362.0000 </r>
       <r>    -5.4047     0.0000   362.0000 </r>
       <r>    -5.3142     0.0000   362.0000 </r>
       <r>    -5.2237     8.2145   362.7435 </r>
       <r>    -5.1331    74.2197   370.7182 </r>
       <r>    -5.0426    22.0967   374.0000 </r>
       <r>    -4.9521    25.4669   376.3050 </r>
       <r>    -4.8616    66.2912   384.0000 </r>
       <r>    -4.7711     0.0000   384.0000 </r>
       <r>    -4.6806    22.0971   386.0000 </r>
       <r>    -4.5901     0.0000   386.0000 </r>
       <r>    -4.4996     0.0000   386.0000 </r>
       <r>    -4.4091     0.0000   386.0000 </r>
       <r>    -4.3186     0.0000   386.0000 </r>
       <r>    -4.2281     0.0000   386.0000 </r>
       <r>    -4.1375     0.0000   386.0000 </r>
       <r>    -4.0470     0.0000   386.0000 </r>
       <r>    -3.9565     0.0000   386.0000 </r>
       <r>    -3.8660     0.0000   386.0000 </r>
       <r>    -3.7755     0.0000   386.0000 </r>
       <r>    -3.6850     0.0000   386.0000 </r>
       <r>    -3.5945     0.0000   386.0000 </r>
       <r>    -3.5040     0.0000   386.0000 </r>
       <r>    -3.4135     0.0000   386.0000 </r>
       <r>    -3.3230     0.0000   386.0000 </r>
       <r>    -3.2324     0.0000   386.0000 </r>
       <r>    -3.1419     0.0000   386.0000 </r>
       <r>    -3.0514     0.0000   386.0000 </r>
       <r>    -2.9609     0.0000   386.0000 </r>
       <r>    -2.8704     0.0000   386.0000 </r>
       <r>    -2.7799     0.0000   386.0000 </r>
       <r>    -2.6894     0.0000   386.0000 </r>
       <r>    -2.5989     0.0000   386.0000 </r>
       <r>    -2.5084     0.0000   386.0000 </r>
       <r>    -2.4179     0.0000   386.0000 </r>
       <r>    -2.3273     0.0000   386.0000 </r>
       <r>    -2.2368     0.0000   386.0000 </r>
       <r>    -2.1463     0.0000   386.0000 </r>
       <r>    -2.0558     0.0000   386.0000 </r>
       <r>    -1.9653     0.0000   386.0000 </r>
       <r>    -1.8748     0.0000   386.0000 </r>
       <r>    -1.7843     0.0000   386.0000 </r>
       <r>    -1.6938     0.0000   386.0000 </r>
       <r>    -1.6033     0.0000   386.0000 </r>
       <r>    -1.5128     0.0000   386.0000 </r>
       <r>    -1.4223     0.0000   386.0000 </r>
       <r>    -1.3317     0.5148   386.0466 </r>
       <r>    -1.2412    21.5823   388.0000 </r>
       <r>    -1.1507    22.0971   390.0000 </r>
       <r>    -1.0602     0.0000   390.0000 </r>
       <r>    -0.9697     0.0000   390.0000 </r>
       <r>    -0.8792     0.0000   390.0000 </r>
       <r>    -0.7887     0.0000   390.0000 </r>
       <r>    -0.6982     0.0000   390.0000 </r>
       <r>    -0.6077     0.0000   390.0000 </r>
       <r>    -0.5172     0.0000   390.0000 </r>
       <r>    -0.4266     0.0000   390.0000 </r>
       <r>    -0.3361     0.0000   390.0000 </r>
       <r>    -0.2456     0.0000   390.0000 </r>
       <r>    -0.1551     0.0000   390.0000 </r>
       <r>    -0.0646     0.0000   390.0000 </r>
       <r>     0.0259     0.0001   390.0000 </r>
       <r>     0.1164    22.0970   392.0000 </r>
       <r>     0.2069    13.4837   393.2204 </r>
       <r>     0.2974    74.3530   400.7297 </r>
       <r>     0.3879    23.6941   406.1445 </r>
       <r>     0.4785    31.3697   410.8393 </r>
       <r>     0.5690    22.0971   414.0000 </r>
       <r>     0.6595    22.0971   416.0000 </r>
       <r>     0.7500    27.4487   418.4844 </r>
       <r>     0.8405   100.7730   429.1210 </r>
       <r>     0.9310    44.0726   434.0000 </r>
       <r>     1.0215    35.2141   437.1872 </r>
       <r>     1.1120    25.7940   440.3346 </r>
       <r>     1.2025     0.0000   442.0000 </r>
       <r>     1.2930     0.0000   442.0000 </r>
       <r>     1.3836     0.0000   442.0000 </r>
       <r>     1.4741     0.0295   442.0027 </r>
       <r>     1.5646    22.0676   444.0000 </r>
       <r>     1.6551     0.1339   444.0121 </r>
       <r>     1.7456   117.3333   454.6319 </r>
       <r>     1.8361    47.4843   460.2978 </r>
       <r>     1.9266   117.1752   472.7194 </r>
       <r>     2.0171    22.8486   476.0680 </r>
       <r>     2.1076    44.2285   480.0711 </r>
       <r>     2.1981    66.2212   488.0000 </r>
       <r>     2.2886     0.0000   488.0000 </r>
       <r>     2.3792     0.0000   488.0000 </r>
       <r>     2.4697     0.0000   488.0000 </r>
       <r>     2.5602     0.0000   488.0000 </r>
       <r>     2.6507     0.0000   488.0000 </r>
       <r>     2.7412     0.0000   488.0000 </r>
       <r>     2.8317     0.0000   488.0000 </r>
       <r>     2.9222     0.0000   488.0000 </r>
       <r>     3.0127     0.0000   488.0000 </r>
       <r>     3.1032     0.0000   488.0000 </r>
       <r>     3.1937     0.0000   488.0000 </r>
       <r>     3.2843     0.0000   488.0000 </r>
       <r>     3.3748     0.0000   488.0000 </r>
      </set>
     </set>
    </array>
   </total>
  </dos>
 </calculation>
 <structure name="finalpos" >
  <crystal>
   <varray name="basis" >
    <v>      17.59966831       0.00000000       0.00000000 </v>
    <v>      -8.79983416      15.24175986       0.00000000 </v>
    <v>       0.00000000       0.00000000      19.92151445 </v>
   </varray>
   <i name="volume">   5343.94461817 </i>
   <varray name="rec_basis" >
    <v>       0.05681925       0.03280461       0.00000000 </v>
    <v>       0.00000000       0.06560922       0.00000000 </v>
    <v>       0.00000000       0.00000000       0.05019699 </v>
   </varray>
  </crystal>
  <varray name="positions" >
   <v>       0.99943010       0.00005992       0.50000000 </v>
   <v>       0.14164706       0.99871895       0.50000000 </v>
   <v>       0.28492260       0.99841663       0.50000000 </v>
   <v>       0.42850047       0.99871895       0.50000000 </v>
   <v>       0.57205839       0.00005992       0.50000000 </v>
   <v>       0.71530655       0.00214292       0.50000000 </v>
   <v>       0.85826494       0.00214292       0.50000000 </v>
   <v>       0.00080792       0.14408264       0.50000000 </v>
   <v>       0.14259355       0.14244783       0.50000000 </v>
   <v>       0.28470221       0.14112972       0.50000000 </v>
   <v>       0.42785608       0.14112972       0.50000000 </v>
   <v>       0.57128286       0.14244783       0.50000000 </v>
   <v>       0.71470329       0.14408264       0.50000000 </v>
   <v>       0.85805263       0.14467669       0.50000000 </v>
   <v>       0.00095476       0.28713011       0.50000000 </v>
   <v>       0.14372552       0.28645370       0.50000000 </v>
   <v>       0.28540977       0.28469374       0.50000000 </v>
   <v>       0.42724431       0.28306005       0.50000000 </v>
   <v>       0.57071254       0.28469374       0.50000000 </v>
   <v>       0.71415674       0.28645370       0.50000000 </v>
   <v>       0.85760392       0.28713011       0.50000000 </v>
   <v>       0.00054479       0.42966101       0.50000000 </v>
   <v>       0.14422690       0.42957551       0.50000000 </v>
   <v>       0.28730213       0.42918005       0.50000000 </v>
   <v>       0.42797654       0.42569726       0.50000000 </v>
   <v>       0.56914930       0.42569726       0.50000000 </v>
   <v>       0.71330650       0.42918005       0.50000000 </v>
   <v>       0.85677719       0.42957551       0.50000000 </v>
   <v>       0.99928255       0.57181462       0.50000000 </v>
   <v>       0.14396064       0.57181462       0.50000000 </v>
   <v>       0.28862787       0.57181625       0.50000000 </v>
   <v>       0.43313209       0.57215564       0.50000000 </v>
   <v>       0.71045212       0.57215564       0.50000000 </v>
   <v>       0.85461695       0.57181625       0.50000000 </v>
   <v>       0.99707234       0.71370518       0.50000000 </v>
   <v>       0.14255519       0.71368182       0.50000000 </v>
   <v>       0.28806142       0.71370518       0.50000000 </v>
   <v>       0.43464191       0.71382540       0.50000000 </v>
   <v>       0.58510826       0.71626937       0.50000000 </v>
   <v>       0.70258968       0.71626937       0.50000000 </v>
   <v>       0.85061206       0.71382540       0.50000000 </v>
   <v>       0.99777175       0.85613493       0.50000000 </v>
   <v>       0.14160898       0.85591288       0.50000000 </v>
   <v>       0.28573247       0.85591288       0.50000000 </v>
   <v>       0.42979175       0.85613493       0.50000000 </v>
   <v>       0.57342541       0.85758690       0.50000000 </v>
   <v>       0.71640633       0.86138410       0.50000000 </v>
   <v>       0.85559006       0.85758690       0.50000000 </v>
   <v>       0.04754270       0.09547788       0.50000000 </v>
   <v>       0.18957833       0.09405657       0.50000000 </v>
   <v>       0.33254182       0.09365506       0.50000000 </v>
   <v>       0.47590681       0.09405657       0.50000000 </v>
   <v>       0.61936376       0.09547788       0.50000000 </v>
   <v>       0.76280004       0.09719274       0.50000000 </v>
   <v>       0.90582126       0.09719274       0.50000000 </v>
   <v>       0.04854983       0.23934281       0.50000000 </v>
   <v>       0.19048138       0.23782962       0.50000000 </v>
   <v>       0.33234878       0.23634667       0.50000000 </v>
   <v>       0.47542646       0.23634667       0.50000000 </v>
   <v>       0.61877681       0.23782962       0.50000000 </v>
   <v>       0.76222155       0.23934281       0.50000000 </v>
   <v>       0.90562797       0.23982737       0.50000000 </v>
   <v>       0.04871288       0.38232824       0.50000000 </v>
   <v>       0.19151321       0.38184213       0.49962381 </v>
   <v>       0.33352206       0.38013969       0.50000000 </v>
   <v>       0.47472270       0.37801683       0.50000000 </v>
   <v>       0.61804620       0.38013969       0.50000000 </v>
   <v>       0.76138130       0.38184213       0.50000000 </v>
   <v>       0.90504393       0.38232824       0.50000000 </v>
   <v>       0.04810654       0.52478452       0.50000000 </v>
   <v>       0.19263929       0.52476864       0.50000000 </v>
   <v>       0.33696521       0.52455433       0.50000000 </v>
   <v>       0.47833704       0.52146721       0.50000000 </v>
   <v>       0.61455874       0.52146721       0.50000000 </v>
   <v>       0.75901769       0.52455433       0.50000000 </v>
   <v>       0.90355792       0.52476864       0.50000000 </v>
   <v>       0.04642473       0.66685228       0.50000000 </v>
   <v>       0.19185612       0.66685228       0.50000000 </v>
   <v>       0.33777931       0.66688794       0.50000000 </v>
   <v>       0.48615700       0.66710760       0.50000000 </v>
   <v>       0.75237918       0.66710760       0.50000000 </v>
   <v>       0.90053720       0.66688794       0.50000000 </v>
   <v>       0.04582562       0.80879365       0.50000000 </v>
   <v>       0.19009580       0.80876303       0.50000000 </v>
   <v>       0.33439660       0.80879365       0.50000000 </v>
   <v>       0.47844872       0.80897069       0.50000000 </v>
   <v>       0.62209487       0.81129474       0.50000000 </v>
   <v>       0.76062845       0.81129474       0.50000000 </v>
   <v>       0.90195054       0.80897069       0.50000000 </v>
   <v>       0.04629157       0.95154386       0.50000000 </v>
   <v>       0.18948291       0.95113037       0.50000000 </v>
   <v>       0.33307603       0.95113037       0.50000000 </v>
   <v>       0.47668087       0.95154386       0.50000000 </v>
   <v>       0.62015751       0.95313740       0.50000000 </v>
   <v>       0.76355772       0.95568687       0.50000000 </v>
   <v>       0.90440847       0.95313740       0.50000000 </v>
   <v>       0.56830873       0.56518888       0.50000000 </v>
  </varray>
 </structure>
</modeling>
