<?xml version="1.0" encoding="ISO-8859-1"?>
<modeling>
 <generator>
  <i name="program" type="string">vasp </i>
  <i name="version" type="string">5.4.4.18Apr17-6-g9f103f2a35  </i>
  <i name="subversion" type="string">(build Oct 18 2020 22:16:12) gamma-only         parallel </i>
  <i name="platform" type="string">UA-vaughan-2020a </i>
  <i name="date" type="string">2023 03 21 </i>
  <i name="time" type="string">18:02:22 </i>
 </generator>
 <incar>
  <i type="string" name="PREC">accurate</i>
  <i type="int" name="IALGO">    38</i>
  <i type="logical" name="ADDGRID"> T  </i>
  <i type="int" name="NELMIN">     5</i>
  <i type="int" name="IBRION">    -1</i>
  <i name="EDIFF">      0.00000001</i>
  <i name="EDIFFG">     -0.00000001</i>
  <i type="int" name="NSW">     0</i>
  <i type="int" name="ISIF">     2</i>
  <i name="ENCUT">    500.00000000</i>
  <i type="logical" name="LREAL"> F  </i>
  <i type="int" name="ISMEAR">     0</i>
  <i name="SIGMA">      0.01000000</i>
  <i type="logical" name="LWAVE"> F  </i>
  <i type="logical" name="LCHARG"> F  </i>
  <v type="int" name="KPOINT_BSE">    -1     0     0     0</v>
 </incar>
 <structure name="primitive_cell" >
  <crystal>
   <varray name="basis" >
    <v>      17.59966831       0.00000000       0.00000000 </v>
    <v>      -8.79983416      15.24175986       0.00000000 </v>
    <v>       0.00000000       0.00000000      19.92151445 </v>
   </varray>
   <i name="volume">   5343.94461817 </i>
   <varray name="rec_basis" >
    <v>       0.05681925       0.03280461       0.00000000 </v>
    <v>       0.00000000       0.06560922       0.00000000 </v>
    <v>       0.00000000       0.00000000       0.05019699 </v>
   </varray>
  </crystal>
  <varray name="positions" >
   <v>      -0.00056990       0.00005992      -0.50000000 </v>
   <v>      -0.09559153      -0.04686260      -0.50000000 </v>
   <v>       0.04629157      -0.04845614      -0.50000000 </v>
   <v>       0.04754270       0.09547788      -0.50000000 </v>
   <v>      -0.14173506       0.00214292      -0.50000000 </v>
   <v>       0.14259355       0.14187964      -0.50000000 </v>
   <v>       0.14164706      -0.00128105      -0.50000000 </v>
   <v>      -0.00222825      -0.14386507      -0.50000000 </v>
   <v>      -0.14440994      -0.14241310      -0.50000000 </v>
   <v>       0.00080792       0.14408264      -0.50000000 </v>
   <v>       0.18957833       0.09405657      -0.50000000 </v>
   <v>      -0.09417874       0.09719274      -0.50000000 </v>
   <v>      -0.09804946      -0.19102931      -0.50000000 </v>
   <v>      -0.23644228      -0.04431313      -0.50000000 </v>
   <v>      -0.23937155      -0.18870526      -0.50000000 </v>
   <v>       0.19048138       0.23782962      -0.50000000 </v>
   <v>       0.04582562      -0.19120635      -0.50000000 </v>
   <v>       0.18948291      -0.04886963      -0.50000000 </v>
   <v>       0.04854983       0.23934281      -0.50000000 </v>
   <v>      -0.28359367      -0.13861590      -0.50000000 </v>
   <v>       0.28470221       0.14112972      -0.50000000 </v>
   <v>      -0.14194737       0.14467669      -0.50000000 </v>
   <v>      -0.14938794      -0.28617460      -0.50000000 </v>
   <v>       0.14160898      -0.14408712      -0.50000000 </v>
   <v>       0.14372552       0.28645370      -0.50000000 </v>
   <v>      -0.28469345       0.00214292      -0.50000000 </v>
   <v>      -0.00292766      -0.28629482      -0.50000000 </v>
   <v>       0.28540977       0.28469374      -0.50000000 </v>
   <v>       0.00095476       0.28713011      -0.50000000 </v>
   <v>       0.28492260      -0.00158337      -0.50000000 </v>
   <v>      -0.29741032      -0.28373063      -0.50000000 </v>
   <v>      -0.09946280      -0.33311206      -0.50000000 </v>
   <v>       0.33234878       0.23634667      -0.50000000 </v>
   <v>      -0.23719996       0.09719274      -0.50000000 </v>
   <v>       0.33254182       0.09365506      -0.50000000 </v>
   <v>      -0.09437203       0.23982737      -0.50000000 </v>
   <v>      -0.24762082      -0.33289240      -0.50000000 </v>
   <v>      -0.37790513      -0.18870526      -0.50000000 </v>
   <v>       0.19188940       0.38184213      -0.50000000 </v>
   <v>       0.19009580      -0.19123697      -0.50000000 </v>
   <v>      -0.37984249      -0.04686260      -0.50000000 </v>
   <v>       0.04642473      -0.33314772      -0.50000000 </v>
   <v>       0.33352206       0.38013969      -0.50000000 </v>
   <v>       0.04871288       0.38232824      -0.50000000 </v>
   <v>       0.33307603      -0.04886963      -0.50000000 </v>
   <v>      -0.41489174      -0.28373063      -0.50000000 </v>
   <v>      -0.42657459      -0.14241310      -0.50000000 </v>
   <v>       0.42724431       0.28306005      -0.50000000 </v>
   <v>      -0.14538305      -0.42818375      -0.50000000 </v>
   <v>      -0.28529671       0.14408264      -0.50000000 </v>
   <v>      -0.28954788      -0.42784436      -0.50000000 </v>
   <v>       0.42785608       0.14112972      -0.50000000 </v>
   <v>      -0.14239608       0.28713011      -0.50000000 </v>
   <v>       0.14422690       0.42957551      -0.50000000 </v>
   <v>       0.28730213       0.42918005      -0.50000000 </v>
   <v>       0.14255519      -0.28631818      -0.50000000 </v>
   <v>       0.28573247      -0.14408712      -0.50000000 </v>
   <v>      -0.24098231      -0.47544567      -0.50000000 </v>
   <v>       0.47542646       0.23634667      -0.50000000 </v>
   <v>      -0.23777845       0.23934281      -0.50000000 </v>
   <v>       0.42797654       0.42569726      -0.50000000 </v>
   <v>      -0.42794161       0.00005992      -0.50000000 </v>
   <v>      -0.00071745      -0.42818538      -0.50000000 </v>
   <v>       0.00054479       0.42966101      -0.50000000 </v>
   <v>       0.42850047      -0.00128105      -0.50000000 </v>
   <v>      -0.43169127      -0.43481112      -0.50000000 </v>
   <v>       0.47472270       0.37801683      -0.50000000 </v>
   <v>      -0.09644208      -0.47523136      -0.50000000 </v>
   <v>      -0.38063624       0.09547788      -0.50000000 </v>
   <v>       0.47590681       0.09405657      -0.50000000 </v>
   <v>      -0.09495607       0.38232824      -0.50000000 </v>
   <v>      -0.38544126      -0.47853279      -0.50000000 </v>
   <v>       0.48615700      -0.33289240      -0.50000000 </v>
   <v>       0.47844872      -0.19102931      -0.50000000 </v>
   <v>       0.19263929      -0.47523136      -0.50000000 </v>
   <v>       0.33696521      -0.47544567      -0.50000000 </v>
   <v>       0.19185612      -0.33314772      -0.50000000 </v>
   <v>       0.33439660      -0.19120635      -0.50000000 </v>
   <v>       0.43464191      -0.28617460      -0.50000000 </v>
   <v>      -0.28669350       0.42918005      -0.50000000 </v>
   <v>      -0.42928746       0.28469374      -0.50000000 </v>
   <v>      -0.28584326       0.28645370      -0.50000000 </v>
   <v>       0.28862787      -0.42818375      -0.50000000 </v>
   <v>       0.28806142      -0.28629482      -0.50000000 </v>
   <v>       0.47668087      -0.04845614      -0.50000000 </v>
   <v>       0.47833704      -0.47853279      -0.50000000 </v>
   <v>       0.04810654      -0.47521548      -0.50000000 </v>
   <v>       0.43313209      -0.42784436      -0.50000000 </v>
   <v>       0.42979175      -0.14386507      -0.50000000 </v>
   <v>      -0.43085070       0.42569726      -0.50000000 </v>
   <v>      -0.14322281       0.42957551      -0.50000000 </v>
   <v>      -0.42871714       0.14244783      -0.50000000 </v>
   <v>       0.14396064      -0.42818538      -0.50000000 </v>
   <v>      -0.23861870       0.38184213      -0.50000000 </v>
   <v>      -0.38122319       0.23782962      -0.50000000 </v>
   <v>      -0.38195380       0.38013969      -0.50000000 </v>
   <v>       0.33777931      -0.33311206      -0.50000000 </v>
  </varray>
 </structure>
 <varray name="primitive_index" >
  <v type="int" >        1 </v>
  <v type="int" >       96 </v>
  <v type="int" >       90 </v>
  <v type="int" >       49 </v>
  <v type="int" >        7 </v>
  <v type="int" >        9 </v>
  <v type="int" >        2 </v>
  <v type="int" >       42 </v>
  <v type="int" >       48 </v>
  <v type="int" >        8 </v>
  <v type="int" >       50 </v>
  <v type="int" >       55 </v>
  <v type="int" >       89 </v>
  <v type="int" >       95 </v>
  <v type="int" >       88 </v>
  <v type="int" >       57 </v>
  <v type="int" >       83 </v>
  <v type="int" >       91 </v>
  <v type="int" >       56 </v>
  <v type="int" >       47 </v>
  <v type="int" >       10 </v>
  <v type="int" >       14 </v>
  <v type="int" >       41 </v>
  <v type="int" >       43 </v>
  <v type="int" >       16 </v>
  <v type="int" >        6 </v>
  <v type="int" >       35 </v>
  <v type="int" >       17 </v>
  <v type="int" >       15 </v>
  <v type="int" >        3 </v>
  <v type="int" >       40 </v>
  <v type="int" >       82 </v>
  <v type="int" >       58 </v>
  <v type="int" >       54 </v>
  <v type="int" >       51 </v>
  <v type="int" >       62 </v>
  <v type="int" >       81 </v>
  <v type="int" >       87 </v>
  <v type="int" >       64 </v>
  <v type="int" >       84 </v>
  <v type="int" >       94 </v>
  <v type="int" >       77 </v>
  <v type="int" >       65 </v>
  <v type="int" >       63 </v>
  <v type="int" >       92 </v>
  <v type="int" >       39 </v>
  <v type="int" >       46 </v>
  <v type="int" >       18 </v>
  <v type="int" >       34 </v>
  <v type="int" >       13 </v>
  <v type="int" >       33 </v>
  <v type="int" >       11 </v>
  <v type="int" >       21 </v>
  <v type="int" >       23 </v>
  <v type="int" >       24 </v>
  <v type="int" >       36 </v>
  <v type="int" >       44 </v>
  <v type="int" >       75 </v>
  <v type="int" >       59 </v>
  <v type="int" >       61 </v>
  <v type="int" >       25 </v>
  <v type="int" >        5 </v>
  <v type="int" >       29 </v>
  <v type="int" >       22 </v>
  <v type="int" >        4 </v>
  <v type="int" >       97 </v>
  <v type="int" >       66 </v>
  <v type="int" >       76 </v>
  <v type="int" >       53 </v>
  <v type="int" >       52 </v>
  <v type="int" >       69 </v>
  <v type="int" >       74 </v>
  <v type="int" >       80 </v>
  <v type="int" >       86 </v>
  <v type="int" >       71 </v>
  <v type="int" >       72 </v>
  <v type="int" >       78 </v>
  <v type="int" >       85 </v>
  <v type="int" >       38 </v>
  <v type="int" >       27 </v>
  <v type="int" >       19 </v>
  <v type="int" >       20 </v>
  <v type="int" >       31 </v>
  <v type="int" >       37 </v>
  <v type="int" >       93 </v>
  <v type="int" >       73 </v>
  <v type="int" >       70 </v>
  <v type="int" >       32 </v>
  <v type="int" >       45 </v>
  <v type="int" >       26 </v>
  <v type="int" >       28 </v>
  <v type="int" >       12 </v>
  <v type="int" >       30 </v>
  <v type="int" >       68 </v>
  <v type="int" >       60 </v>
  <v type="int" >       67 </v>
  <v type="int" >       79 </v>
 </varray>
 <kpoints>
  <generation param="Gamma">
   <v type="int" name="divisions">       1        1        1 </v>
   <v name="usershift">      0.00000000       0.00000000       0.00000000 </v>
   <v name="genvec1">      1.00000000      -0.00000000       0.00000000 </v>
   <v name="genvec2">      0.00000000       1.00000000       0.00000000 </v>
   <v name="genvec3">      0.00000000       0.00000000       1.00000000 </v>
   <v name="shift">      0.00000000       0.00000000       0.00000000 </v>
  </generation>
  <varray name="kpointlist" >
   <v>       0.00000000       0.00000000       0.00000000 </v>
  </varray>
  <varray name="weights" >
   <v>       1.00000000 </v>
  </varray>
 </kpoints>
 <parameters>
  <separator name="general" >
   <i type="string" name="SYSTEM">unknown system</i>
   <i type="logical" name="LCOMPAT"> F  </i>
  </separator>
  <separator name="electronic" >
   <i type="string" name="PREC">accura</i>
   <i name="ENMAX">    500.00000000</i>
   <i name="ENAUG">    644.87300000</i>
   <i name="EDIFF">      0.00000001</i>
   <i type="int" name="IALGO">    38</i>
   <i type="int" name="IWAVPR">    10</i>
   <i type="int" name="NBANDS">   244</i>
   <i name="NELECT">    388.00000000</i>
   <i type="int" name="TURBO">     0</i>
   <i type="int" name="IRESTART">     0</i>
   <i type="int" name="NREBOOT">     0</i>
   <i type="int" name="NMIN">     0</i>
   <i name="EREF">      0.00000000</i>
   <separator name="electronic smearing" >
    <i type="int" name="ISMEAR">     0</i>
    <i name="SIGMA">      0.01000000</i>
    <i name="KSPACING">      0.50000000</i>
    <i type="logical" name="KGAMMA"> T  </i>
   </separator>
   <separator name="electronic projectors" >
    <i type="logical" name="LREAL"> F  </i>
    <v name="ROPT">      0.00000000      0.00000000      0.00000000</v>
    <i type="int" name="LMAXPAW">  -100</i>
    <i type="int" name="LMAXMIX">     2</i>
    <i type="logical" name="NLSPLINE"> F  </i>
   </separator>
   <separator name="electronic startup" >
    <i type="int" name="ISTART">     0</i>
    <i type="int" name="ICHARG">     2</i>
    <i type="int" name="INIWAV">     1</i>
   </separator>
   <separator name="electronic spin" >
    <i type="int" name="ISPIN">     1</i>
    <i type="logical" name="LNONCOLLINEAR"> F  </i>
    <v name="MAGMOM">      1.00000000      1.00000000      1.00000000      1.00000000      1.00000000      1.00000000      1.00000000      1.00000000      1.00000000      1.00000000      1.00000000      1.00000000      1.00000000      1.00000000      1.00000000      1.00000000      1.00000000      1.00000000      1.00000000      1.00000000
      1.00000000      1.00000000      1.00000000      1.00000000      1.00000000      1.00000000      1.00000000      1.00000000      1.00000000      1.00000000      1.00000000      1.00000000      1.00000000      1.00000000      1.00000000      1.00000000      1.00000000      1.00000000      1.00000000      1.00000000
      1.00000000      1.00000000      1.00000000      1.00000000      1.00000000      1.00000000      1.00000000      1.00000000      1.00000000      1.00000000      1.00000000      1.00000000      1.00000000      1.00000000      1.00000000      1.00000000      1.00000000      1.00000000      1.00000000      1.00000000
      1.00000000      1.00000000      1.00000000      1.00000000      1.00000000      1.00000000      1.00000000      1.00000000      1.00000000      1.00000000      1.00000000      1.00000000      1.00000000      1.00000000      1.00000000      1.00000000      1.00000000      1.00000000      1.00000000      1.00000000
      1.00000000      1.00000000      1.00000000      1.00000000      1.00000000      1.00000000      1.00000000      1.00000000      1.00000000      1.00000000      1.00000000      1.00000000      1.00000000      1.00000000      1.00000000      1.00000000      1.00000000</v>
    <i name="NUPDOWN">     -1.00000000</i>
    <i type="logical" name="LSORBIT"> F  </i>
    <v name="SAXIS">      0.00000000      0.00000000      1.00000000</v>
    <i type="logical" name="LSPIRAL"> F  </i>
    <v name="QSPIRAL">      0.00000000      0.00000000      0.00000000</v>
    <i type="logical" name="LZEROZ"> F  </i>
   </separator>
   <separator name="electronic exchange-correlation" >
    <i type="logical" name="LASPH"> F  </i>
    <i type="logical" name="LMETAGGA"> F  </i>
   </separator>
   <separator name="electronic convergence" >
    <i type="int" name="NELM">    60</i>
    <i type="int" name="NELMDL">    -5</i>
    <i type="int" name="NELMIN">     5</i>
    <i name="ENINI">    500.00000000</i>
    <separator name="electronic convergence detail" >
     <i type="logical" name="LDIAG"> T  </i>
     <i type="logical" name="LSUBROT"> F  </i>
     <i name="WEIMIN">      0.00000000</i>
     <i name="EBREAK">      0.00000000</i>
     <i name="DEPER">      0.30000000</i>
     <i type="int" name="NRMM">     4</i>
     <i name="TIME">      0.40000000</i>
    </separator>
   </separator>
   <separator name="electronic mixer" >
    <i name="AMIX">      0.40000000</i>
    <i name="BMIX">      1.00000000</i>
    <i name="AMIN">      0.10000000</i>
    <i name="AMIX_MAG">      1.60000000</i>
    <i name="BMIX_MAG">      1.00000000</i>
    <separator name="electronic mixer details" >
     <i type="int" name="IMIX">     4</i>
     <i type="logical" name="MIXFIRST"> F  </i>
     <i type="int" name="MAXMIX">   -45</i>
     <i name="WC">    100.00000000</i>
     <i type="int" name="INIMIX">     1</i>
     <i type="int" name="MIXPRE">     1</i>
     <i type="int" name="MREMOVE">     5</i>
    </separator>
   </separator>
   <separator name="electronic dipolcorrection" >
    <i type="logical" name="LDIPOL"> F  </i>
    <i type="logical" name="LMONO"> F  </i>
    <i type="int" name="IDIPOL">     0</i>
    <i name="EPSILON">      1.00000000</i>
    <v name="DIPOL">   -100.00000000   -100.00000000   -100.00000000</v>
    <i name="EFIELD">      0.00000000</i>
   </separator>
  </separator>
  <separator name="grids" >
   <i type="int" name="NGX">   128</i>
   <i type="int" name="NGY">   128</i>
   <i type="int" name="NGZ">   150</i>
   <i type="int" name="NGXF">   256</i>
   <i type="int" name="NGYF">   256</i>
   <i type="int" name="NGZF">   300</i>
   <i type="logical" name="ADDGRID"> T  </i>
  </separator>
  <separator name="ionic" >
   <i type="int" name="NSW">     0</i>
   <i type="int" name="IBRION">    -1</i>
   <i type="int" name="MDALGO">     0</i>
   <i type="int" name="ISIF">     2</i>
   <i name="PSTRESS">      0.00000000</i>
   <i name="EDIFFG">     -0.00000001</i>
   <i type="int" name="NFREE">     0</i>
   <i name="POTIM">      0.50000000</i>
   <i name="SMASS">     -3.00000000</i>
   <i name="SCALEE">      1.00000000</i>
  </separator>
  <separator name="ionic md" >
   <i name="TEBEG">      0.00010000</i>
   <i name="TEEND">      0.00010000</i>
   <i type="int" name="NBLOCK">     1</i>
   <i type="int" name="KBLOCK">     1</i>
   <i type="int" name="NPACO">   256</i>
   <i name="APACO">     16.00000000</i>
  </separator>
  <separator name="symmetry" >
   <i type="int" name="ISYM">     2</i>
   <i name="SYMPREC">      0.00001000</i>
  </separator>
  <separator name="dos" >
   <i type="int" name="LORBIT">     0</i>
   <v name="RWIGS">     -1.00000000     -1.00000000     -1.00000000</v>
   <i type="int" name="NEDOS">   301</i>
   <i name="EMIN">     10.00000000</i>
   <i name="EMAX">    -10.00000000</i>
   <i name="EFERMI">      0.00000000</i>
  </separator>
  <separator name="writing" >
   <i type="int" name="NWRITE">     2</i>
   <i type="logical" name="LWAVE"> F  </i>
   <i type="logical" name="LDOWNSAMPLE"> F  </i>
   <i type="logical" name="LCHARG"> F  </i>
   <i type="logical" name="LPARD"> F  </i>
   <i type="logical" name="LVTOT"> F  </i>
   <i type="logical" name="LVHAR"> F  </i>
   <i type="logical" name="LELF"> F  </i>
   <i type="logical" name="LOPTICS"> F  </i>
   <v name="STM">      0.00000000      0.00000000      0.00000000      0.00000000      0.00000000      0.00000000      0.00000000</v>
  </separator>
  <separator name="performance" >
   <i type="int" name="NPAR">     4</i>
   <i type="int" name="NSIM">     4</i>
   <i type="int" name="NBLK">    -1</i>
   <i type="logical" name="LPLANE"> T  </i>
   <i type="logical" name="LSCALAPACK"> T  </i>
   <i type="logical" name="LSCAAWARE"> F  </i>
   <i type="logical" name="LSCALU"> F  </i>
   <i type="logical" name="LASYNC"> F  </i>
   <i type="logical" name="LORBITALREAL"> F  </i>
  </separator>
  <separator name="miscellaneous" >
   <i type="int" name="IDIOT">     3</i>
   <i type="int" name="ISPECIAL">     0</i>
   <i type="logical" name="LMUSIC"> F  </i>
   <v name="POMASS">     10.81100000     14.00100000     12.01100000</v>
   <v name="DARWINR">      0.00000000      0.00000000      0.00000000</v>
   <v name="DARWINV">      1.00000000      1.00000000      1.00000000</v>
   <i type="logical" name="LCORR"> T  </i>
  </separator>
  <i type="logical" name="GGA_COMPAT"> T  </i>
  <i type="logical" name="LBERRY"> F  </i>
  <i type="int" name="ICORELEVEL">     0</i>
  <i type="logical" name="LDAU"> F  </i>
  <i type="int" name="I_CONSTRAINED_M">     0</i>
  <separator name="electronic exchange-correlation" >
   <i type="string" name="GGA">--</i>
   <i type="int" name="VOSKOWN">     0</i>
   <i type="logical" name="LHFCALC"> F  </i>
   <i type="string" name="PRECFOCK"></i>
   <i type="logical" name="LSYMGRAD"> F  </i>
   <i type="logical" name="LHFONE"> F  </i>
   <i type="logical" name="LRHFCALC"> F  </i>
   <i type="logical" name="LTHOMAS"> F  </i>
   <i type="logical" name="LMODELHF"> F  </i>
   <i name="ENCUT4O">     -1.00000000</i>
   <i type="int" name="EXXOEP">     0</i>
   <i type="int" name="FOURORBIT">     0</i>
   <i name="AEXX">      0.00000000</i>
   <i name="HFALPHA">      0.00000000</i>
   <i name="MCALPHA">      0.00000000</i>
   <i name="ALDAX">      1.00000000</i>
   <i name="AGGAX">      1.00000000</i>
   <i name="ALDAC">      1.00000000</i>
   <i name="AGGAC">      1.00000000</i>
   <i type="int" name="NKREDX">     1</i>
   <i type="int" name="NKREDY">     1</i>
   <i type="int" name="NKREDZ">     1</i>
   <i type="logical" name="SHIFTRED"> F  </i>
   <i type="logical" name="ODDONLY"> F  </i>
   <i type="logical" name="EVENONLY"> F  </i>
   <i type="int" name="LMAXFOCK">     0</i>
   <i type="int" name="NMAXFOCKAE">     0</i>
   <i type="logical" name="LFOCKAEDFT"> F  </i>
   <i name="HFSCREEN">      0.00000000</i>
   <i name="HFSCREENC">      0.00000000</i>
   <i type="int" name="NBANDSGWLOW">     0</i>
  </separator>
  <separator name="vdW DFT" >
   <i type="logical" name="LUSE_VDW"> F  </i>
   <i name="Zab_VDW">     -0.84910000</i>
   <i name="PARAM1">      0.12340000</i>
   <i name="PARAM2">      1.00000000</i>
   <i name="PARAM3">      0.00000000</i>
  </separator>
  <separator name="model GW" >
   <i type="int" name="MODEL_GW">     0</i>
   <i name="MODEL_EPS0">     33.05532754</i>
   <i name="MODEL_ALPHA">      1.00000000</i>
  </separator>
  <separator name="linear response parameters" >
   <i type="logical" name="LEPSILON"> F  </i>
   <i type="logical" name="LRPA"> F  </i>
   <i type="logical" name="LNABLA"> F  </i>
   <i type="logical" name="LVEL"> F  </i>
   <i type="int" name="KINTER">     0</i>
   <i name="CSHIFT">      0.10000000</i>
   <i name="OMEGAMAX">     -1.00000000</i>
   <i name="DEG_THRESHOLD">      0.00200000</i>
   <i name="RTIME">     -0.10000000</i>
   <i name="WPLASMAI">      0.00000000</i>
   <v name="DFIELD">      0.00000000      0.00000000      0.00000000</v>
   <v name="WPLASMA">      0.00000000      0.00000000      0.00000000      0.00000000      0.00000000      0.00000000      0.00000000      0.00000000      0.00000000</v>
  </separator>
  <separator name="orbital magnetization" >
   <i type="logical" name="NUCIND"> F  </i>
   <v name="MAGPOS">      0.00000000      0.00000000      0.00000000</v>
   <i type="logical" name="LNICSALL"> T  </i>
   <i type="logical" name="ORBITALMAG"> F  </i>
   <i type="logical" name="LMAGBLOCH"> F  </i>
   <i type="logical" name="LCHIMAG"> F  </i>
   <i type="logical" name="LGAUGE"> T  </i>
   <i type="int" name="MAGATOM">     0</i>
   <v name="MAGDIPOL">      0.00000000      0.00000000      0.00000000</v>
   <v name="AVECCONST">      0.00000000      0.00000000      0.00000000</v>
  </separator>
  <separator name="response functions" >
   <i type="logical" name="LADDER"> F  </i>
   <i type="logical" name="LRPAFORCE"> F  </i>
   <i type="logical" name="LFXC"> F  </i>
   <i type="logical" name="LHARTREE"> T  </i>
   <i type="int" name="IBSE">     0</i>
   <v type="int" name="KPOINT">    -1     0     0     0</v>
   <i type="logical" name="LTCTE"> F  </i>
   <i type="logical" name="LTETE"> F  </i>
   <i type="logical" name="LTRIPLET"> F  </i>
   <i type="logical" name="LFXCEPS"> F  </i>
   <i type="logical" name="LFXHEG"> F  </i>
   <i type="int" name="NATURALO">     2</i>
   <i type="logical" name="L2ORDER"> F  </i>
   <i type="logical" name="LMP2LT"> F  </i>
   <i type="logical" name="LUSEW"> F  </i>
   <i name="ENCUTGW">     -2.00000000</i>
   <i name="ENCUTGWSOFT">     -2.00000000</i>
   <i name="ENCUTLF">     -1.00000000</i>
   <i type="int" name="LMAXMP2">    -1</i>
   <i name="SCISSOR">      0.00000000</i>
   <i type="int" name="NOMEGA">     0</i>
   <i type="int" name="NOMEGAR">     0</i>
   <i type="int" name="NBANDSGW">    -1</i>
   <i type="int" name="NBANDSO">    -1</i>
   <i type="int" name="NBANDSV">    -1</i>
   <i type="int" name="NELM">     1</i>
   <i type="int" name="NELMHF">     1</i>
   <i type="int" name="DIM">     3</i>
   <i type="int" name="ANTIRES">     0</i>
   <i name="OMEGAMAX">    -30.00000000</i>
   <i name="OMEGAMIN">    -30.00000000</i>
   <i name="OMEGATL">   -200.00000000</i>
   <i type="int" name="OMEGAGRID">   140</i>
   <i name="CSHIFT">     -0.10000000</i>
   <i type="logical" name="SELFENERGY"> F  </i>
   <i type="logical" name="LSPECTRAL"> F  </i>
   <i type="logical" name="LSPECTRALGW"> F  </i>
   <i type="logical" name="LSINGLES"> F  </i>
   <i type="logical" name="LFERMIGW"> F  </i>
   <i type="logical" name="ODDONLYGW"> F  </i>
   <i type="logical" name="EVENONLYGW"> F  </i>
   <i type="int" name="NKREDLFX">     1</i>
   <i type="int" name="NKREDLFY">     1</i>
   <i type="int" name="NKREDLFZ">     1</i>
   <i type="int" name="MAXMEM">  2800</i>
   <i type="int" name="TELESCOPE">     0</i>
   <i type="int" name="TAUPAR">     1</i>
   <i type="int" name="OMEGAPAR">    -1</i>
   <i name="LAMBDA">      1.00000000</i>
  </separator>
  <separator name="External order field" >
   <i name="OFIELD_KAPPA">      0.00000000</i>
   <v name="OFIELD_K">      0.00000000      0.00000000      0.00000000</v>
   <i name="OFIELD_Q6_NEAR">      0.00000000</i>
   <i name="OFIELD_Q6_FAR">      0.00000000</i>
   <i name="OFIELD_A">      0.00000000</i>
  </separator>
 </parameters>
 <atominfo>
  <atoms>      97 </atoms>
  <types>       3 </types>
  <array name="atoms" >
   <dimension dim="1">ion</dimension>
   <field type="string">element</field>
   <field type="int">atomtype</field>
   <set>
    <rc><c>B </c><c>   1</c></rc>
    <rc><c>B </c><c>   1</c></rc>
    <rc><c>B </c><c>   1</c></rc>
    <rc><c>B </c><c>   1</c></rc>
    <rc><c>B </c><c>   1</c></rc>
    <rc><c>B </c><c>   1</c></rc>
    <rc><c>B </c><c>   1</c></rc>
    <rc><c>B </c><c>   1</c></rc>
    <rc><c>B </c><c>   1</c></rc>
    <rc><c>B </c><c>   1</c></rc>
    <rc><c>B </c><c>   1</c></rc>
    <rc><c>B </c><c>   1</c></rc>
    <rc><c>B </c><c>   1</c></rc>
    <rc><c>B </c><c>   1</c></rc>
    <rc><c>B </c><c>   1</c></rc>
    <rc><c>B </c><c>   1</c></rc>
    <rc><c>B </c><c>   1</c></rc>
    <rc><c>B </c><c>   1</c></rc>
    <rc><c>B </c><c>   1</c></rc>
    <rc><c>B </c><c>   1</c></rc>
    <rc><c>B </c><c>   1</c></rc>
    <rc><c>B </c><c>   1</c></rc>
    <rc><c>B </c><c>   1</c></rc>
    <rc><c>B </c><c>   1</c></rc>
    <rc><c>B </c><c>   1</c></rc>
    <rc><c>B </c><c>   1</c></rc>
    <rc><c>B </c><c>   1</c></rc>
    <rc><c>B </c><c>   1</c></rc>
    <rc><c>B </c><c>   1</c></rc>
    <rc><c>B </c><c>   1</c></rc>
    <rc><c>B </c><c>   1</c></rc>
    <rc><c>B </c><c>   1</c></rc>
    <rc><c>B </c><c>   1</c></rc>
    <rc><c>B </c><c>   1</c></rc>
    <rc><c>B </c><c>   1</c></rc>
    <rc><c>B </c><c>   1</c></rc>
    <rc><c>B </c><c>   1</c></rc>
    <rc><c>B </c><c>   1</c></rc>
    <rc><c>B </c><c>   1</c></rc>
    <rc><c>B </c><c>   1</c></rc>
    <rc><c>B </c><c>   1</c></rc>
    <rc><c>B </c><c>   1</c></rc>
    <rc><c>B </c><c>   1</c></rc>
    <rc><c>B </c><c>   1</c></rc>
    <rc><c>B </c><c>   1</c></rc>
    <rc><c>B </c><c>   1</c></rc>
    <rc><c>B </c><c>   1</c></rc>
    <rc><c>B </c><c>   1</c></rc>
    <rc><c>N </c><c>   2</c></rc>
    <rc><c>N </c><c>   2</c></rc>
    <rc><c>N </c><c>   2</c></rc>
    <rc><c>N </c><c>   2</c></rc>
    <rc><c>N </c><c>   2</c></rc>
    <rc><c>N </c><c>   2</c></rc>
    <rc><c>N </c><c>   2</c></rc>
    <rc><c>N </c><c>   2</c></rc>
    <rc><c>N </c><c>   2</c></rc>
    <rc><c>N </c><c>   2</c></rc>
    <rc><c>N </c><c>   2</c></rc>
    <rc><c>N </c><c>   2</c></rc>
    <rc><c>N </c><c>   2</c></rc>
    <rc><c>N </c><c>   2</c></rc>
    <rc><c>N </c><c>   2</c></rc>
    <rc><c>N </c><c>   2</c></rc>
    <rc><c>N </c><c>   2</c></rc>
    <rc><c>N </c><c>   2</c></rc>
    <rc><c>N </c><c>   2</c></rc>
    <rc><c>N </c><c>   2</c></rc>
    <rc><c>N </c><c>   2</c></rc>
    <rc><c>N </c><c>   2</c></rc>
    <rc><c>N </c><c>   2</c></rc>
    <rc><c>N </c><c>   2</c></rc>
    <rc><c>N </c><c>   2</c></rc>
    <rc><c>N </c><c>   2</c></rc>
    <rc><c>N </c><c>   2</c></rc>
    <rc><c>N </c><c>   2</c></rc>
    <rc><c>N </c><c>   2</c></rc>
    <rc><c>N </c><c>   2</c></rc>
    <rc><c>N </c><c>   2</c></rc>
    <rc><c>N </c><c>   2</c></rc>
    <rc><c>N </c><c>   2</c></rc>
    <rc><c>N </c><c>   2</c></rc>
    <rc><c>N </c><c>   2</c></rc>
    <rc><c>N </c><c>   2</c></rc>
    <rc><c>N </c><c>   2</c></rc>
    <rc><c>N </c><c>   2</c></rc>
    <rc><c>N </c><c>   2</c></rc>
    <rc><c>N </c><c>   2</c></rc>
    <rc><c>N </c><c>   2</c></rc>
    <rc><c>N </c><c>   2</c></rc>
    <rc><c>N </c><c>   2</c></rc>
    <rc><c>N </c><c>   2</c></rc>
    <rc><c>N </c><c>   2</c></rc>
    <rc><c>N </c><c>   2</c></rc>
    <rc><c>N </c><c>   2</c></rc>
    <rc><c>N </c><c>   2</c></rc>
    <rc><c>C </c><c>   3</c></rc>
   </set>
  </array>
  <array name="atomtypes" >
   <dimension dim="1">type</dimension>
   <field type="int">atomspertype</field>
   <field type="string">element</field>
   <field>mass</field>
   <field>valence</field>
   <field type="string">pseudopotential</field>
   <set>
    <rc><c>  48</c><c>B </c><c>     10.81100000</c><c>      3.00000000</c><c>  PAW_PBE B 06Sep2000                   </c></rc>
    <rc><c>  48</c><c>N </c><c>     14.00100000</c><c>      5.00000000</c><c>  PAW_PBE N 08Apr2002                   </c></rc>
    <rc><c>   1</c><c>C </c><c>     12.01100000</c><c>      4.00000000</c><c>  PAW_PBE C 08Apr2002                   </c></rc>
   </set>
  </array>
 </atominfo>
 <structure name="initialpos" >
  <crystal>
   <varray name="basis" >
    <v>      17.59966831       0.00000000       0.00000000 </v>
    <v>      -8.79983416      15.24175986       0.00000000 </v>
    <v>       0.00000000       0.00000000      19.92151445 </v>
   </varray>
   <i name="volume">   5343.94461817 </i>
   <varray name="rec_basis" >
    <v>       0.05681925       0.03280461       0.00000000 </v>
    <v>       0.00000000       0.06560922       0.00000000 </v>
    <v>       0.00000000       0.00000000       0.05019699 </v>
   </varray>
  </crystal>
  <varray name="positions" >
   <v>       0.99943010       0.00005992       0.50000000 </v>
   <v>       0.14164706       0.99871895       0.50000000 </v>
   <v>       0.28492260       0.99841663       0.50000000 </v>
   <v>       0.42850047       0.99871895       0.50000000 </v>
   <v>       0.57205839       0.00005992       0.50000000 </v>
   <v>       0.71530655       0.00214292       0.50000000 </v>
   <v>       0.85826494       0.00214292       0.50000000 </v>
   <v>       0.00080792       0.14408264       0.50000000 </v>
   <v>       0.14259355       0.14187964       0.50000000 </v>
   <v>       0.28470221       0.14112972       0.50000000 </v>
   <v>       0.42785608       0.14112972       0.50000000 </v>
   <v>       0.57128286       0.14244783       0.50000000 </v>
   <v>       0.71470329       0.14408264       0.50000000 </v>
   <v>       0.85805263       0.14467669       0.50000000 </v>
   <v>       0.00095476       0.28713011       0.50000000 </v>
   <v>       0.14372552       0.28645370       0.50000000 </v>
   <v>       0.28540977       0.28469374       0.50000000 </v>
   <v>       0.42724431       0.28306005       0.50000000 </v>
   <v>       0.57071254       0.28469374       0.50000000 </v>
   <v>       0.71415674       0.28645370       0.50000000 </v>
   <v>       0.85760392       0.28713011       0.50000000 </v>
   <v>       0.00054479       0.42966101       0.50000000 </v>
   <v>       0.14422690       0.42957551       0.50000000 </v>
   <v>       0.28730213       0.42918005       0.50000000 </v>
   <v>       0.42797654       0.42569726       0.50000000 </v>
   <v>       0.56914930       0.42569726       0.50000000 </v>
   <v>       0.71330650       0.42918005       0.50000000 </v>
   <v>       0.85677719       0.42957551       0.50000000 </v>
   <v>       0.99928255       0.57181462       0.50000000 </v>
   <v>       0.14396064       0.57181462       0.50000000 </v>
   <v>       0.28862787       0.57181625       0.50000000 </v>
   <v>       0.43313209       0.57215564       0.50000000 </v>
   <v>       0.71045212       0.57215564       0.50000000 </v>
   <v>       0.85461695       0.57181625       0.50000000 </v>
   <v>       0.99707234       0.71370518       0.50000000 </v>
   <v>       0.14255519       0.71368182       0.50000000 </v>
   <v>       0.28806142       0.71370518       0.50000000 </v>
   <v>       0.43464191       0.71382540       0.50000000 </v>
   <v>       0.58510826       0.71626937       0.50000000 </v>
   <v>       0.70258968       0.71626937       0.50000000 </v>
   <v>       0.85061206       0.71382540       0.50000000 </v>
   <v>       0.99777175       0.85613493       0.50000000 </v>
   <v>       0.14160898       0.85591288       0.50000000 </v>
   <v>       0.28573247       0.85591288       0.50000000 </v>
   <v>       0.42979175       0.85613493       0.50000000 </v>
   <v>       0.57342541       0.85758690       0.50000000 </v>
   <v>       0.71640633       0.86138410       0.50000000 </v>
   <v>       0.85559006       0.85758690       0.50000000 </v>
   <v>       0.04754270       0.09547788       0.50000000 </v>
   <v>       0.18957833       0.09405657       0.50000000 </v>
   <v>       0.33254182       0.09365506       0.50000000 </v>
   <v>       0.47590681       0.09405657       0.50000000 </v>
   <v>       0.61936376       0.09547788       0.50000000 </v>
   <v>       0.76280004       0.09719274       0.50000000 </v>
   <v>       0.90582126       0.09719274       0.50000000 </v>
   <v>       0.04854983       0.23934281       0.50000000 </v>
   <v>       0.19048138       0.23782962       0.50000000 </v>
   <v>       0.33234878       0.23634667       0.50000000 </v>
   <v>       0.47542646       0.23634667       0.50000000 </v>
   <v>       0.61877681       0.23782962       0.50000000 </v>
   <v>       0.76222155       0.23934281       0.50000000 </v>
   <v>       0.90562797       0.23982737       0.50000000 </v>
   <v>       0.04871288       0.38232824       0.50000000 </v>
   <v>       0.19188940       0.38184213       0.50000000 </v>
   <v>       0.33352206       0.38013969       0.50000000 </v>
   <v>       0.47472270       0.37801683       0.50000000 </v>
   <v>       0.61804620       0.38013969       0.50000000 </v>
   <v>       0.76138130       0.38184213       0.50000000 </v>
   <v>       0.90504393       0.38232824       0.50000000 </v>
   <v>       0.04810654       0.52478452       0.50000000 </v>
   <v>       0.19263929       0.52476864       0.50000000 </v>
   <v>       0.33696521       0.52455433       0.50000000 </v>
   <v>       0.47833704       0.52146721       0.50000000 </v>
   <v>       0.61455874       0.52146721       0.50000000 </v>
   <v>       0.75901769       0.52455433       0.50000000 </v>
   <v>       0.90355792       0.52476864       0.50000000 </v>
   <v>       0.04642473       0.66685228       0.50000000 </v>
   <v>       0.19185612       0.66685228       0.50000000 </v>
   <v>       0.33777931       0.66688794       0.50000000 </v>
   <v>       0.48615700       0.66710760       0.50000000 </v>
   <v>       0.75237918       0.66710760       0.50000000 </v>
   <v>       0.90053720       0.66688794       0.50000000 </v>
   <v>       0.04582562       0.80879365       0.50000000 </v>
   <v>       0.19009580       0.80876303       0.50000000 </v>
   <v>       0.33439660       0.80879365       0.50000000 </v>
   <v>       0.47844872       0.80897069       0.50000000 </v>
   <v>       0.62209487       0.81129474       0.50000000 </v>
   <v>       0.76062845       0.81129474       0.50000000 </v>
   <v>       0.90195054       0.80897069       0.50000000 </v>
   <v>       0.04629157       0.95154386       0.50000000 </v>
   <v>       0.18948291       0.95113037       0.50000000 </v>
   <v>       0.33307603       0.95113037       0.50000000 </v>
   <v>       0.47668087       0.95154386       0.50000000 </v>
   <v>       0.62015751       0.95313740       0.50000000 </v>
   <v>       0.76355772       0.95568687       0.50000000 </v>
   <v>       0.90440847       0.95313740       0.50000000 </v>
   <v>       0.56830873       0.56518888       0.50000000 </v>
  </varray>
 </structure>
 <calculation>
  <scstep>
   <time name="dav">    2.37    2.39</time>
   <time name="total">    2.74    2.83</time>
   <energy>
    <i name="alphaZ">    156.50993408 </i>
    <i name="ewald">  58206.77943567 </i>
    <i name="hartreedc"> -70374.19925600 </i>
    <i name="XCdc">   1302.10879980 </i>
    <i name="pawpsdc">  12033.28670802 </i>
    <i name="pawaedc"> -12049.96799276 </i>
    <i name="eentropy">     -0.00000000 </i>
    <i name="bandstr">   -904.62180036 </i>
    <i name="atom">  16260.93880140 </i>
    <i name="e_fr_energy">   4630.83462984 </i>
    <i name="e_wo_entrp">   4630.83462984 </i>
    <i name="e_0_energy">   4630.83462984 </i>
   </energy>
  </scstep>
  <scstep>
   <time name="dav">    3.40    3.45</time>
   <time name="total">    3.40    3.45</time>
   <energy>
    <i name="e_fr_energy">    216.73440678 </i>
    <i name="e_wo_entrp">    216.73440678 </i>
    <i name="e_0_energy">    216.73440678 </i>
   </energy>
  </scstep>
  <scstep>
   <time name="dav">    2.67    2.73</time>
   <time name="total">    2.67    2.73</time>
   <energy>
    <i name="e_fr_energy">   -867.44158996 </i>
    <i name="e_wo_entrp">   -867.44158996 </i>
    <i name="e_0_energy">   -867.44158996 </i>
   </energy>
  </scstep>
  <scstep>
   <time name="dav">    2.47    2.52</time>
   <time name="total">    2.48    2.52</time>
   <energy>
    <i name="e_fr_energy">   -934.19238639 </i>
    <i name="e_wo_entrp">   -934.19238639 </i>
    <i name="e_0_energy">   -934.19238639 </i>
   </energy>
  </scstep>
  <scstep>
   <time name="dav">    2.51    2.55</time>
   <time name="total">    2.95    2.99</time>
   <energy>
    <i name="e_fr_energy">   -935.77521142 </i>
    <i name="e_wo_entrp">   -935.77521142 </i>
    <i name="e_0_energy">   -935.77521142 </i>
   </energy>
  </scstep>
  <scstep>
   <time name="dav">    2.33    2.35</time>
   <time name="total">    3.13    3.18</time>
   <energy>
    <i name="e_fr_energy">   -858.72980079 </i>
    <i name="e_wo_entrp">   -858.72980079 </i>
    <i name="e_0_energy">   -858.72980079 </i>
   </energy>
  </scstep>
  <scstep>
   <time name="dav">    2.34    2.38</time>
   <time name="total">    3.13    3.19</time>
   <energy>
    <i name="e_fr_energy">   -850.19302100 </i>
    <i name="e_wo_entrp">   -850.19302100 </i>
    <i name="e_0_energy">   -850.19302100 </i>
   </energy>
  </scstep>
  <scstep>
   <time name="dav">    2.29    2.32</time>
   <time name="total">    3.09    3.13</time>
   <energy>
    <i name="e_fr_energy">   -845.92698752 </i>
    <i name="e_wo_entrp">   -845.92698649 </i>
    <i name="e_0_energy">   -845.92698700 </i>
   </energy>
  </scstep>
  <scstep>
   <time name="dav">    2.30    2.33</time>
   <time name="total">    3.11    3.15</time>
   <energy>
    <i name="e_fr_energy">   -845.80080318 </i>
    <i name="e_wo_entrp">   -845.80080318 </i>
    <i name="e_0_energy">   -845.80080318 </i>
   </energy>
  </scstep>
  <scstep>
   <time name="dav">    2.38    2.40</time>
   <time name="total">    3.19    3.22</time>
   <energy>
    <i name="e_fr_energy">   -845.63939951 </i>
    <i name="e_wo_entrp">   -845.63939951 </i>
    <i name="e_0_energy">   -845.63939951 </i>
   </energy>
  </scstep>
  <scstep>
   <time name="dav">    2.24    2.26</time>
   <time name="total">    3.05    3.09</time>
   <energy>
    <i name="e_fr_energy">   -845.58691492 </i>
    <i name="e_wo_entrp">   -845.58691492 </i>
    <i name="e_0_energy">   -845.58691492 </i>
   </energy>
  </scstep>
  <scstep>
   <time name="dav">    2.25    2.28</time>
   <time name="total">    3.06    3.11</time>
   <energy>
    <i name="e_fr_energy">   -845.57404968 </i>
    <i name="e_wo_entrp">   -845.57404968 </i>
    <i name="e_0_energy">   -845.57404968 </i>
   </energy>
  </scstep>
  <scstep>
   <time name="dav">    2.23    2.25</time>
   <time name="total">    3.03    3.08</time>
   <energy>
    <i name="e_fr_energy">   -845.58470482 </i>
    <i name="e_wo_entrp">   -845.58470482 </i>
    <i name="e_0_energy">   -845.58470482 </i>
   </energy>
  </scstep>
  <scstep>
   <time name="dav">    2.25    2.28</time>
   <time name="total">    3.06    3.11</time>
   <energy>
    <i name="e_fr_energy">   -845.59416424 </i>
    <i name="e_wo_entrp">   -845.59416424 </i>
    <i name="e_0_energy">   -845.59416424 </i>
   </energy>
  </scstep>
  <scstep>
   <time name="dav">    2.18    2.21</time>
   <time name="total">    2.99    3.03</time>
   <energy>
    <i name="e_fr_energy">   -845.62537999 </i>
    <i name="e_wo_entrp">   -845.62537999 </i>
    <i name="e_0_energy">   -845.62537999 </i>
   </energy>
  </scstep>
  <scstep>
   <time name="dav">    2.21    2.23</time>
   <time name="total">    3.02    3.06</time>
   <energy>
    <i name="e_fr_energy">   -845.64178557 </i>
    <i name="e_wo_entrp">   -845.64178557 </i>
    <i name="e_0_energy">   -845.64178557 </i>
   </energy>
  </scstep>
  <scstep>
   <time name="dav">    2.28    2.30</time>
   <time name="total">    3.09    3.13</time>
   <energy>
    <i name="e_fr_energy">   -845.64815337 </i>
    <i name="e_wo_entrp">   -845.64815337 </i>
    <i name="e_0_energy">   -845.64815337 </i>
   </energy>
  </scstep>
  <scstep>
   <time name="dav">    2.21    2.22</time>
   <time name="total">    3.03    3.06</time>
   <energy>
    <i name="e_fr_energy">   -845.65132557 </i>
    <i name="e_wo_entrp">   -845.65132557 </i>
    <i name="e_0_energy">   -845.65132557 </i>
   </energy>
  </scstep>
  <scstep>
   <time name="dav">    2.31    2.33</time>
   <time name="total">    3.12    3.15</time>
   <energy>
    <i name="e_fr_energy">   -845.65233718 </i>
    <i name="e_wo_entrp">   -845.65233718 </i>
    <i name="e_0_energy">   -845.65233718 </i>
   </energy>
  </scstep>
  <scstep>
   <time name="dav">    2.23    2.25</time>
   <time name="total">    3.04    3.08</time>
   <energy>
    <i name="e_fr_energy">   -845.65276104 </i>
    <i name="e_wo_entrp">   -845.65276104 </i>
    <i name="e_0_energy">   -845.65276104 </i>
   </energy>
  </scstep>
  <scstep>
   <time name="dav">    2.26    2.28</time>
   <time name="total">    3.07    3.10</time>
   <energy>
    <i name="e_fr_energy">   -845.65295699 </i>
    <i name="e_wo_entrp">   -845.65295699 </i>
    <i name="e_0_energy">   -845.65295699 </i>
   </energy>
  </scstep>
  <scstep>
   <time name="dav">    2.19    2.21</time>
   <time name="total">    3.00    3.03</time>
   <energy>
    <i name="e_fr_energy">   -845.65307436 </i>
    <i name="e_wo_entrp">   -845.65307436 </i>
    <i name="e_0_energy">   -845.65307436 </i>
   </energy>
  </scstep>
  <scstep>
   <time name="dav">    2.26    2.28</time>
   <time name="total">    3.07    3.10</time>
   <energy>
    <i name="e_fr_energy">   -845.65314896 </i>
    <i name="e_wo_entrp">   -845.65314896 </i>
    <i name="e_0_energy">   -845.65314896 </i>
   </energy>
  </scstep>
  <scstep>
   <time name="dav">    2.29    2.31</time>
   <time name="total">    3.10    3.15</time>
   <energy>
    <i name="e_fr_energy">   -845.65318778 </i>
    <i name="e_wo_entrp">   -845.65318778 </i>
    <i name="e_0_energy">   -845.65318778 </i>
   </energy>
  </scstep>
  <scstep>
   <time name="dav">    2.24    2.26</time>
   <time name="total">    3.05    3.09</time>
   <energy>
    <i name="e_fr_energy">   -845.65320585 </i>
    <i name="e_wo_entrp">   -845.65320585 </i>
    <i name="e_0_energy">   -845.65320585 </i>
   </energy>
  </scstep>
  <scstep>
   <time name="dav">    2.21    2.23</time>
   <time name="total">    3.03    3.06</time>
   <energy>
    <i name="e_fr_energy">   -845.65322215 </i>
    <i name="e_wo_entrp">   -845.65322215 </i>
    <i name="e_0_energy">   -845.65322215 </i>
   </energy>
  </scstep>
  <scstep>
   <time name="dav">    2.22    2.24</time>
   <time name="total">    3.04    3.07</time>
   <energy>
    <i name="e_fr_energy">   -845.65322536 </i>
    <i name="e_wo_entrp">   -845.65322536 </i>
    <i name="e_0_energy">   -845.65322536 </i>
   </energy>
  </scstep>
  <scstep>
   <time name="dav">    1.92    1.93</time>
   <time name="total">    2.74    2.77</time>
   <energy>
    <i name="e_fr_energy">   -845.65322664 </i>
    <i name="e_wo_entrp">   -845.65322664 </i>
    <i name="e_0_energy">   -845.65322664 </i>
   </energy>
  </scstep>
  <scstep>
   <time name="dav">    1.79    1.81</time>
   <time name="total">    2.61    2.65</time>
   <energy>
    <i name="e_fr_energy">   -845.65322693 </i>
    <i name="e_wo_entrp">   -845.65322693 </i>
    <i name="e_0_energy">   -845.65322693 </i>
   </energy>
  </scstep>
  <scstep>
   <time name="dav">    1.69    1.71</time>
   <time name="total">    2.52    2.55</time>
   <energy>
    <i name="e_fr_energy">   -845.65322703 </i>
    <i name="e_wo_entrp">   -845.65322703 </i>
    <i name="e_0_energy">   -845.65322703 </i>
   </energy>
  </scstep>
  <scstep>
   <time name="dav">    1.68    1.70</time>
   <time name="total">    2.51    2.54</time>
   <energy>
    <i name="e_fr_energy">   -845.65322709 </i>
    <i name="e_wo_entrp">   -845.65322709 </i>
    <i name="e_0_energy">   -845.65322709 </i>
   </energy>
  </scstep>
  <scstep>
   <time name="dav">    1.72    1.73</time>
   <time name="total">    2.55    2.57</time>
   <energy>
    <i name="e_fr_energy">   -845.65322712 </i>
    <i name="e_wo_entrp">   -845.65322712 </i>
    <i name="e_0_energy">   -845.65322712 </i>
   </energy>
  </scstep>
  <scstep>
   <time name="dav">    1.80    1.82</time>
   <time name="total">    2.17    2.21</time>
   <energy>
    <i name="alphaZ">    156.50993408 </i>
    <i name="ewald">  58206.77943567 </i>
    <i name="hartreedc"> -72314.28141494 </i>
    <i name="XCdc">   1369.72410307 </i>
    <i name="pawpsdc">  44018.83594921 </i>
    <i name="pawaedc"> -44054.17786282 </i>
    <i name="eentropy">     -0.00000000 </i>
    <i name="bandstr">  -4489.98217278 </i>
    <i name="atom">  16260.93880140 </i>
    <i name="e_fr_energy">   -845.65322712 </i>
    <i name="e_wo_entrp">   -845.65322712 </i>
    <i name="e_0_energy">   -845.65322712 </i>
   </energy>
  </scstep>
  <structure>
   <crystal>
    <varray name="basis" >
     <v>      17.59966831       0.00000000       0.00000000 </v>
     <v>      -8.79983416      15.24175986       0.00000000 </v>
     <v>       0.00000000       0.00000000      19.92151445 </v>
    </varray>
    <i name="volume">   5343.94461817 </i>
    <varray name="rec_basis" >
     <v>       0.05681925       0.03280461       0.00000000 </v>
     <v>       0.00000000       0.06560922       0.00000000 </v>
     <v>       0.00000000       0.00000000       0.05019699 </v>
    </varray>
   </crystal>
   <varray name="positions" >
    <v>       0.99943010       0.00005992       0.50000000 </v>
    <v>       0.14164706       0.99871895       0.50000000 </v>
    <v>       0.28492260       0.99841663       0.50000000 </v>
    <v>       0.42850047       0.99871895       0.50000000 </v>
    <v>       0.57205839       0.00005992       0.50000000 </v>
    <v>       0.71530655       0.00214292       0.50000000 </v>
    <v>       0.85826494       0.00214292       0.50000000 </v>
    <v>       0.00080792       0.14408264       0.50000000 </v>
    <v>       0.14259355       0.14187964       0.50000000 </v>
    <v>       0.28470221       0.14112972       0.50000000 </v>
    <v>       0.42785608       0.14112972       0.50000000 </v>
    <v>       0.57128286       0.14244783       0.50000000 </v>
    <v>       0.71470329       0.14408264       0.50000000 </v>
    <v>       0.85805263       0.14467669       0.50000000 </v>
    <v>       0.00095476       0.28713011       0.50000000 </v>
    <v>       0.14372552       0.28645370       0.50000000 </v>
    <v>       0.28540977       0.28469374       0.50000000 </v>
    <v>       0.42724431       0.28306005       0.50000000 </v>
    <v>       0.57071254       0.28469374       0.50000000 </v>
    <v>       0.71415674       0.28645370       0.50000000 </v>
    <v>       0.85760392       0.28713011       0.50000000 </v>
    <v>       0.00054479       0.42966101       0.50000000 </v>
    <v>       0.14422690       0.42957551       0.50000000 </v>
    <v>       0.28730213       0.42918005       0.50000000 </v>
    <v>       0.42797654       0.42569726       0.50000000 </v>
    <v>       0.56914930       0.42569726       0.50000000 </v>
    <v>       0.71330650       0.42918005       0.50000000 </v>
    <v>       0.85677719       0.42957551       0.50000000 </v>
    <v>       0.99928255       0.57181462       0.50000000 </v>
    <v>       0.14396064       0.57181462       0.50000000 </v>
    <v>       0.28862787       0.57181625       0.50000000 </v>
    <v>       0.43313209       0.57215564       0.50000000 </v>
    <v>       0.71045212       0.57215564       0.50000000 </v>
    <v>       0.85461695       0.57181625       0.50000000 </v>
    <v>       0.99707234       0.71370518       0.50000000 </v>
    <v>       0.14255519       0.71368182       0.50000000 </v>
    <v>       0.28806142       0.71370518       0.50000000 </v>
    <v>       0.43464191       0.71382540       0.50000000 </v>
    <v>       0.58510826       0.71626937       0.50000000 </v>
    <v>       0.70258968       0.71626937       0.50000000 </v>
    <v>       0.85061206       0.71382540       0.50000000 </v>
    <v>       0.99777175       0.85613493       0.50000000 </v>
    <v>       0.14160898       0.85591288       0.50000000 </v>
    <v>       0.28573247       0.85591288       0.50000000 </v>
    <v>       0.42979175       0.85613493       0.50000000 </v>
    <v>       0.57342541       0.85758690       0.50000000 </v>
    <v>       0.71640633       0.86138410       0.50000000 </v>
    <v>       0.85559006       0.85758690       0.50000000 </v>
    <v>       0.04754270       0.09547788       0.50000000 </v>
    <v>       0.18957833       0.09405657       0.50000000 </v>
    <v>       0.33254182       0.09365506       0.50000000 </v>
    <v>       0.47590681       0.09405657       0.50000000 </v>
    <v>       0.61936376       0.09547788       0.50000000 </v>
    <v>       0.76280004       0.09719274       0.50000000 </v>
    <v>       0.90582126       0.09719274       0.50000000 </v>
    <v>       0.04854983       0.23934281       0.50000000 </v>
    <v>       0.19048138       0.23782962       0.50000000 </v>
    <v>       0.33234878       0.23634667       0.50000000 </v>
    <v>       0.47542646       0.23634667       0.50000000 </v>
    <v>       0.61877681       0.23782962       0.50000000 </v>
    <v>       0.76222155       0.23934281       0.50000000 </v>
    <v>       0.90562797       0.23982737       0.50000000 </v>
    <v>       0.04871288       0.38232824       0.50000000 </v>
    <v>       0.19188940       0.38184213       0.50000000 </v>
    <v>       0.33352206       0.38013969       0.50000000 </v>
    <v>       0.47472270       0.37801683       0.50000000 </v>
    <v>       0.61804620       0.38013969       0.50000000 </v>
    <v>       0.76138130       0.38184213       0.50000000 </v>
    <v>       0.90504393       0.38232824       0.50000000 </v>
    <v>       0.04810654       0.52478452       0.50000000 </v>
    <v>       0.19263929       0.52476864       0.50000000 </v>
    <v>       0.33696521       0.52455433       0.50000000 </v>
    <v>       0.47833704       0.52146721       0.50000000 </v>
    <v>       0.61455874       0.52146721       0.50000000 </v>
    <v>       0.75901769       0.52455433       0.50000000 </v>
    <v>       0.90355792       0.52476864       0.50000000 </v>
    <v>       0.04642473       0.66685228       0.50000000 </v>
    <v>       0.19185612       0.66685228       0.50000000 </v>
    <v>       0.33777931       0.66688794       0.50000000 </v>
    <v>       0.48615700       0.66710760       0.50000000 </v>
    <v>       0.75237918       0.66710760       0.50000000 </v>
    <v>       0.90053720       0.66688794       0.50000000 </v>
    <v>       0.04582562       0.80879365       0.50000000 </v>
    <v>       0.19009580       0.80876303       0.50000000 </v>
    <v>       0.33439660       0.80879365       0.50000000 </v>
    <v>       0.47844872       0.80897069       0.50000000 </v>
    <v>       0.62209487       0.81129474       0.50000000 </v>
    <v>       0.76062845       0.81129474       0.50000000 </v>
    <v>       0.90195054       0.80897069       0.50000000 </v>
    <v>       0.04629157       0.95154386       0.50000000 </v>
    <v>       0.18948291       0.95113037       0.50000000 </v>
    <v>       0.33307603       0.95113037       0.50000000 </v>
    <v>       0.47668087       0.95154386       0.50000000 </v>
    <v>       0.62015751       0.95313740       0.50000000 </v>
    <v>       0.76355772       0.95568687       0.50000000 </v>
    <v>       0.90440847       0.95313740       0.50000000 </v>
    <v>       0.56830873       0.56518888       0.50000000 </v>
   </varray>
  </structure>
  <varray name="forces" >
   <v>      -0.06540794      -0.02687958       0.00000000 </v>
   <v>      -0.00848611      -0.05225570       0.00000000 </v>
   <v>       0.00582638      -0.01564665       0.00000000 </v>
   <v>       0.02487753      -0.00933822       0.00000000 </v>
   <v>       0.04089922      -0.02616331      -0.00000000 </v>
   <v>      -0.03347191      -0.04906797      -0.00000000 </v>
   <v>       0.03317286      -0.04867973       0.00000000 </v>
   <v>       0.00836426      -0.00564991       0.00000000 </v>
   <v>      -0.27983456       0.39793322       0.00000000 </v>
   <v>       0.02274585      -0.00261975       0.00000000 </v>
   <v>       0.01299540      -0.02779666       0.00000000 </v>
   <v>       0.02908378      -0.02418945      -0.00000000 </v>
   <v>       0.00712148      -0.02615332       0.00000000 </v>
   <v>       0.00063269      -0.03857937       0.00000000 </v>
   <v>      -0.00267608      -0.03207958       0.00000000 </v>
   <v>       0.03432970      -0.07706337       0.00000000 </v>
   <v>      -0.07265257      -0.01274257       0.00000000 </v>
   <v>      -0.00055249      -0.09283379       0.00000000 </v>
   <v>       0.03187744      -0.00132092      -0.00000000 </v>
   <v>      -0.00403177      -0.04407243       0.00000000 </v>
   <v>       0.01043869      -0.02970395       0.00000000 </v>
   <v>       0.00294399       0.00532497       0.00000000 </v>
   <v>      -0.02037475      -0.00469554       0.00000000 </v>
   <v>       0.05664479      -0.14489326       0.00000000 </v>
   <v>      -0.11947996      -0.20174122       0.00000000 </v>
   <v>       0.11024048      -0.20034148       0.00000000 </v>
   <v>      -0.05723006      -0.13879871       0.00000000 </v>
   <v>       0.02664176      -0.00202841       0.00000000 </v>
   <v>       0.01813438       0.02673711      -0.00000000 </v>
   <v>      -0.01500769       0.02648672       0.00000000 </v>
   <v>      -0.08451530       0.12528607       0.00000000 </v>
   <v>       0.04849838       0.39422227       0.00000000 </v>
   <v>      -0.05163415       0.39547009      -0.00000000 </v>
   <v>       0.08580241       0.12646802      -0.00000000 </v>
   <v>      -0.00835126       0.01879225      -0.00000000 </v>
   <v>       0.00110208       0.02484111       0.00000000 </v>
   <v>       0.00967525       0.02021646       0.00000000 </v>
   <v>       0.08671192       0.04150669       0.00000000 </v>
   <v>       1.36359301       1.24967987       0.00000000 </v>
   <v>      -1.36510561       1.25018104       0.00000000 </v>
   <v>      -0.08721545       0.04125497       0.00000000 </v>
   <v>      -0.04735246      -0.01420128      -0.00000000 </v>
   <v>      -0.01224066      -0.01071523       0.00000000 </v>
   <v>       0.01463525      -0.00690700      -0.00000000 </v>
   <v>       0.04795380      -0.00875241       0.00000000 </v>
   <v>       0.15116056       0.03589342       0.00000000 </v>
   <v>      -0.00062306      -0.25231972       0.00000000 </v>
   <v>      -0.15374933       0.03741132       0.00000000 </v>
   <v>       0.06822570      -0.03737240       0.00000000 </v>
   <v>       0.15490422      -0.10769233      -0.00000000 </v>
   <v>      -0.01342101       0.02578523       0.00000000 </v>
   <v>      -0.01390200       0.02227777       0.00000000 </v>
   <v>      -0.02802046       0.03168863      -0.00000000 </v>
   <v>      -0.01327826       0.02609990       0.00000000 </v>
   <v>       0.01618417       0.02263269       0.00000000 </v>
   <v>       0.00305649       0.03085672      -0.00000000 </v>
   <v>       0.03256531      -0.17464780       0.00000000 </v>
   <v>       0.02654644       0.01675558       0.00000000 </v>
   <v>      -0.01605883       0.03194269      -0.00000000 </v>
   <v>       0.00746678       0.00238442       0.00000000 </v>
   <v>      -0.01780681       0.03503507      -0.00000000 </v>
   <v>      -0.00348215       0.02987800       0.00000000 </v>
   <v>       0.00726482       0.02838621       0.00000000 </v>
   <v>       0.04574102       0.06919656       0.00000000 </v>
   <v>      -0.01344579      -0.18891642       0.00000000 </v>
   <v>       0.00338998       0.10865191       0.00000000 </v>
   <v>       0.02238793      -0.20090426       0.00000000 </v>
   <v>      -0.04861814       0.05947107       0.00000000 </v>
   <v>      -0.01302075       0.02678994       0.00000000 </v>
   <v>      -0.00171215       0.01101766       0.00000000 </v>
   <v>       0.02394345      -0.00371066      -0.00000000 </v>
   <v>       0.19067390       0.11741980       0.00000000 </v>
   <v>       1.02548650      -1.56141482      -0.00000000 </v>
   <v>      -1.02115040      -1.56359126       0.00000000 </v>
   <v>      -0.18974369       0.11312244      -0.00000000 </v>
   <v>      -0.02645456      -0.00589061       0.00000000 </v>
   <v>       0.00894389      -0.03065392      -0.00000000 </v>
   <v>      -0.01122841      -0.03059278      -0.00000000 </v>
   <v>      -0.05972644      -0.06391742       0.00000000 </v>
   <v>      -0.26980124       0.01108974      -0.00000000 </v>
   <v>       0.27151221       0.01033369       0.00000000 </v>
   <v>       0.05947342      -0.06455182       0.00000000 </v>
   <v>       0.03662655      -0.00851204      -0.00000000 </v>
   <v>      -0.00195135      -0.00781802       0.00000000 </v>
   <v>      -0.03813654      -0.01090522       0.00000000 </v>
   <v>      -0.08609580      -0.01207599       0.00000000 </v>
   <v>      -0.88603506       0.24464791      -0.00000000 </v>
   <v>       0.88745170       0.24387266       0.00000000 </v>
   <v>       0.08824039      -0.01115011       0.00000000 </v>
   <v>       0.04287697       0.02602403      -0.00000000 </v>
   <v>       0.00285577       0.00335976      -0.00000000 </v>
   <v>      -0.01429836      -0.00135676      -0.00000000 </v>
   <v>      -0.03376966       0.01780445      -0.00000000 </v>
   <v>      -0.11141934       0.11925771      -0.00000000 </v>
   <v>       0.00013921       0.01586044       0.00000000 </v>
   <v>       0.11253970       0.11344328       0.00000000 </v>
   <v>      -0.00202953      -0.11888640       0.00000000 </v>
  </varray>
  <varray name="stress" >
   <v>     -10.57423162      -0.01867803       0.00000000 </v>
   <v>      -0.01867803       3.00773953       0.00000000 </v>
   <v>       0.00000000       0.00000000      -0.42556525 </v>
  </varray>
  <energy>
   <i name="e_fr_energy">   -845.65322712 </i>
   <i name="e_wo_entrp">   -845.65322712 </i>
   <i name="e_0_energy">     -0.00000000 </i>
  </energy>
  <time name="totalsc">  104.41  105.85</time>
  <eigenvalues>
   <array>
    <dimension dim="1">band</dimension>
    <dimension dim="2">kpoint</dimension>
    <dimension dim="3">spin</dimension>
    <field>eigene</field>
    <field>occ</field>
    <set>
     <set comment="spin 1">
      <set comment="kpoint 1">
       <r>  -22.5392    1.0000 </r>
       <r>  -22.0207    1.0000 </r>
       <r>  -21.7697    1.0000 </r>
       <r>  -21.7473    1.0000 </r>
       <r>  -21.6957    1.0000 </r>
       <r>  -21.6567    1.0000 </r>
       <r>  -21.6168    1.0000 </r>
       <r>  -21.2362    1.0000 </r>
       <r>  -21.0680    1.0000 </r>
       <r>  -21.0041    1.0000 </r>
       <r>  -20.9663    1.0000 </r>
       <r>  -20.9304    1.0000 </r>
       <r>  -20.8767    1.0000 </r>
       <r>  -20.7462    1.0000 </r>
       <r>  -20.7051    1.0000 </r>
       <r>  -20.6646    1.0000 </r>
       <r>  -20.5942    1.0000 </r>
       <r>  -20.5672    1.0000 </r>
       <r>  -20.4242    1.0000 </r>
       <r>  -19.9813    1.0000 </r>
       <r>  -19.9246    1.0000 </r>
       <r>  -19.8034    1.0000 </r>
       <r>  -19.7627    1.0000 </r>
       <r>  -19.7368    1.0000 </r>
       <r>  -19.7355    1.0000 </r>
       <r>  -19.7085    1.0000 </r>
       <r>  -19.6954    1.0000 </r>
       <r>  -19.6475    1.0000 </r>
       <r>  -19.6401    1.0000 </r>
       <r>  -19.6279    1.0000 </r>
       <r>  -19.4937    1.0000 </r>
       <r>  -19.4054    1.0000 </r>
       <r>  -19.3625    1.0000 </r>
       <r>  -19.3595    1.0000 </r>
       <r>  -19.2893    1.0000 </r>
       <r>  -19.2392    1.0000 </r>
       <r>  -19.1095    1.0000 </r>
       <r>  -18.9991    1.0000 </r>
       <r>  -18.9285    1.0000 </r>
       <r>  -18.8799    1.0000 </r>
       <r>  -18.8544    1.0000 </r>
       <r>  -18.8328    1.0000 </r>
       <r>  -18.7666    1.0000 </r>
       <r>  -18.7518    1.0000 </r>
       <r>  -18.7278    1.0000 </r>
       <r>  -18.7141    1.0000 </r>
       <r>  -18.6941    1.0000 </r>
       <r>  -18.4451    1.0000 </r>
       <r>  -14.1384    1.0000 </r>
       <r>  -13.1838    1.0000 </r>
       <r>  -13.1569    1.0000 </r>
       <r>  -13.1071    1.0000 </r>
       <r>  -13.1011    1.0000 </r>
       <r>  -13.0805    1.0000 </r>
       <r>  -13.0185    1.0000 </r>
       <r>  -12.9622    1.0000 </r>
       <r>  -12.9502    1.0000 </r>
       <r>  -12.9361    1.0000 </r>
       <r>  -12.8058    1.0000 </r>
       <r>  -12.7678    1.0000 </r>
       <r>  -12.5989    1.0000 </r>
       <r>  -12.5029    1.0000 </r>
       <r>  -12.4839    1.0000 </r>
       <r>  -12.3795    1.0000 </r>
       <r>  -12.3095    1.0000 </r>
       <r>  -12.2965    1.0000 </r>
       <r>  -12.1772    1.0000 </r>
       <r>  -11.8997    1.0000 </r>
       <r>  -11.8866    1.0000 </r>
       <r>  -11.7685    1.0000 </r>
       <r>  -11.7656    1.0000 </r>
       <r>  -11.7505    1.0000 </r>
       <r>  -11.7399    1.0000 </r>
       <r>  -11.6951    1.0000 </r>
       <r>  -11.6564    1.0000 </r>
       <r>  -11.6322    1.0000 </r>
       <r>  -11.5415    1.0000 </r>
       <r>  -11.4212    1.0000 </r>
       <r>  -11.1986    1.0000 </r>
       <r>  -11.1206    1.0000 </r>
       <r>  -11.0856    1.0000 </r>
       <r>  -11.0615    1.0000 </r>
       <r>  -10.9655    1.0000 </r>
       <r>  -10.9125    1.0000 </r>
       <r>  -10.6857    1.0000 </r>
       <r>  -10.4613    1.0000 </r>
       <r>  -10.4309    1.0000 </r>
       <r>  -10.3502    1.0000 </r>
       <r>  -10.2521    1.0000 </r>
       <r>  -10.2075    1.0000 </r>
       <r>   -9.8896    1.0000 </r>
       <r>   -9.7710    1.0000 </r>
       <r>   -9.7649    1.0000 </r>
       <r>   -9.7238    1.0000 </r>
       <r>   -9.6746    1.0000 </r>
       <r>   -9.5864    1.0000 </r>
       <r>   -9.5441    1.0000 </r>
       <r>   -9.4994    1.0000 </r>
       <r>   -9.4643    1.0000 </r>
       <r>   -9.3516    1.0000 </r>
       <r>   -9.3464    1.0000 </r>
       <r>   -9.2849    1.0000 </r>
       <r>   -9.2616    1.0000 </r>
       <r>   -9.2539    1.0000 </r>
       <r>   -9.2527    1.0000 </r>
       <r>   -9.2407    1.0000 </r>
       <r>   -9.2236    1.0000 </r>
       <r>   -9.2202    1.0000 </r>
       <r>   -9.2068    1.0000 </r>
       <r>   -9.2024    1.0000 </r>
       <r>   -9.2018    1.0000 </r>
       <r>   -9.1965    1.0000 </r>
       <r>   -9.1548    1.0000 </r>
       <r>   -9.1346    1.0000 </r>
       <r>   -9.1132    1.0000 </r>
       <r>   -9.1089    1.0000 </r>
       <r>   -9.1017    1.0000 </r>
       <r>   -9.0443    1.0000 </r>
       <r>   -8.9930    1.0000 </r>
       <r>   -8.8460    1.0000 </r>
       <r>   -8.7956    1.0000 </r>
       <r>   -8.6515    1.0000 </r>
       <r>   -8.5066    1.0000 </r>
       <r>   -8.4820    1.0000 </r>
       <r>   -8.4440    1.0000 </r>
       <r>   -8.3269    1.0000 </r>
       <r>   -8.2220    1.0000 </r>
       <r>   -8.2038    1.0000 </r>
       <r>   -8.1975    1.0000 </r>
       <r>   -8.1682    1.0000 </r>
       <r>   -8.1502    1.0000 </r>
       <r>   -8.1262    1.0000 </r>
       <r>   -8.0379    1.0000 </r>
       <r>   -7.9722    1.0000 </r>
       <r>   -7.9514    1.0000 </r>
       <r>   -7.8715    1.0000 </r>
       <r>   -7.8484    1.0000 </r>
       <r>   -7.8448    1.0000 </r>
       <r>   -7.8024    1.0000 </r>
       <r>   -7.8004    1.0000 </r>
       <r>   -7.7950    1.0000 </r>
       <r>   -7.7393    1.0000 </r>
       <r>   -7.7350    1.0000 </r>
       <r>   -7.7115    1.0000 </r>
       <r>   -7.6778    1.0000 </r>
       <r>   -7.6740    1.0000 </r>
       <r>   -7.6644    1.0000 </r>
       <r>   -7.6371    1.0000 </r>
       <r>   -7.6313    1.0000 </r>
       <r>   -7.4388    1.0000 </r>
       <r>   -7.4362    1.0000 </r>
       <r>   -7.4269    1.0000 </r>
       <r>   -7.3890    1.0000 </r>
       <r>   -7.3592    1.0000 </r>
       <r>   -7.2719    1.0000 </r>
       <r>   -6.8356    1.0000 </r>
       <r>   -6.7590    1.0000 </r>
       <r>   -6.6184    1.0000 </r>
       <r>   -6.6061    1.0000 </r>
       <r>   -6.5409    1.0000 </r>
       <r>   -6.5348    1.0000 </r>
       <r>   -6.5034    1.0000 </r>
       <r>   -6.4882    1.0000 </r>
       <r>   -6.4583    1.0000 </r>
       <r>   -6.4569    1.0000 </r>
       <r>   -6.4404    1.0000 </r>
       <r>   -6.4398    1.0000 </r>
       <r>   -6.4106    1.0000 </r>
       <r>   -6.4018    1.0000 </r>
       <r>   -6.3618    1.0000 </r>
       <r>   -6.3454    1.0000 </r>
       <r>   -6.3180    1.0000 </r>
       <r>   -6.1111    1.0000 </r>
       <r>   -5.9730    1.0000 </r>
       <r>   -5.9241    1.0000 </r>
       <r>   -5.8861    1.0000 </r>
       <r>   -5.8779    1.0000 </r>
       <r>   -5.8642    1.0000 </r>
       <r>   -5.7802    1.0000 </r>
       <r>   -5.7796    1.0000 </r>
       <r>   -5.5291    1.0000 </r>
       <r>   -5.2204    1.0000 </r>
       <r>   -5.1969    1.0000 </r>
       <r>   -5.1941    1.0000 </r>
       <r>   -5.1415    1.0000 </r>
       <r>   -5.1355    1.0000 </r>
       <r>   -5.1008    1.0000 </r>
       <r>   -4.9998    1.0000 </r>
       <r>   -4.9466    1.0000 </r>
       <r>   -4.9190    1.0000 </r>
       <r>   -4.9060    1.0000 </r>
       <r>   -4.8986    1.0000 </r>
       <r>   -4.7323    1.0000 </r>
       <r>   -1.3146    1.0000 </r>
       <r>   -1.2015    0.0000 </r>
       <r>    0.0590    0.0000 </r>
       <r>    0.2050    0.0000 </r>
       <r>    0.2412    0.0000 </r>
       <r>    0.2588    0.0000 </r>
       <r>    0.2636    0.0000 </r>
       <r>    0.2998    0.0000 </r>
       <r>    0.3034    0.0000 </r>
       <r>    0.3784    0.0000 </r>
       <r>    0.3918    0.0000 </r>
       <r>    0.4361    0.0000 </r>
       <r>    0.4788    0.0000 </r>
       <r>    0.5292    0.0000 </r>
       <r>    0.6105    0.0000 </r>
       <r>    0.7448    0.0000 </r>
       <r>    0.7473    0.0000 </r>
       <r>    0.7789    0.0000 </r>
       <r>    0.8078    0.0000 </r>
       <r>    0.8117    0.0000 </r>
       <r>    0.8299    0.0000 </r>
       <r>    0.8374    0.0000 </r>
       <r>    0.8575    0.0000 </r>
       <r>    0.8715    0.0000 </r>
       <r>    0.9803    0.0000 </r>
       <r>    1.0200    0.0000 </r>
       <r>    1.0595    0.0000 </r>
       <r>    1.1187    0.0000 </r>
       <r>    1.4953    0.0000 </r>
       <r>    1.6736    0.0000 </r>
       <r>    1.6982    0.0000 </r>
       <r>    1.7053    0.0000 </r>
       <r>    1.7241    0.0000 </r>
       <r>    1.7392    0.0000 </r>
       <r>    1.7443    0.0000 </r>
       <r>    1.8052    0.0000 </r>
       <r>    1.8080    0.0000 </r>
       <r>    1.8456    0.0000 </r>
       <r>    1.8487    0.0000 </r>
       <r>    1.8784    0.0000 </r>
       <r>    1.8817    0.0000 </r>
       <r>    1.9045    0.0000 </r>
       <r>    1.9075    0.0000 </r>
       <r>    1.9296    0.0000 </r>
       <r>    1.9827    0.0000 </r>
       <r>    2.0296    0.0000 </r>
       <r>    2.1039    0.0000 </r>
       <r>    2.1073    0.0000 </r>
       <r>    2.1286    0.0000 </r>
       <r>    2.1347    0.0000 </r>
       <r>    2.1402    0.0000 </r>
      </set>
     </set>
    </set>
   </array>
  </eigenvalues>
  <separator name="orbital magnetization" >
   <v name="MAGDIPOLOUT">      0.00000000      0.00000000      0.00000000</v>
  </separator>
  <dos>
   <i name="efermi">     -1.25214035 </i>
   <total>
    <array>
     <dimension dim="1">gridpoints</dimension>
     <dimension dim="2">spin</dimension>
     <field>energy</field>
     <field>total</field>
     <field>integrated</field>
     <set>
      <set comment="spin 1">
       <r>   -23.7731     0.0000     0.0000 </r>
       <r>   -23.6826     0.0000     0.0000 </r>
       <r>   -23.5921     0.0000     0.0000 </r>
       <r>   -23.5017     0.0000     0.0000 </r>
       <r>   -23.4112     0.0000     0.0000 </r>
       <r>   -23.3207     0.0000     0.0000 </r>
       <r>   -23.2302     0.0000     0.0000 </r>
       <r>   -23.1397     0.0000     0.0000 </r>
       <r>   -23.0492     0.0000     0.0000 </r>
       <r>   -22.9587     0.0000     0.0000 </r>
       <r>   -22.8682     0.0000     0.0000 </r>
       <r>   -22.7777     0.0000     0.0000 </r>
       <r>   -22.6872     0.0000     0.0000 </r>
       <r>   -22.5967     0.0000     0.0000 </r>
       <r>   -22.5063    22.1016     2.0000 </r>
       <r>   -22.4158     0.0000     2.0000 </r>
       <r>   -22.3253     0.0000     2.0000 </r>
       <r>   -22.2348     0.0000     2.0000 </r>
       <r>   -22.1443     0.0000     2.0000 </r>
       <r>   -22.0538     0.0000     2.0000 </r>
       <r>   -21.9633    22.1016     4.0000 </r>
       <r>   -21.8728     0.0000     4.0000 </r>
       <r>   -21.7823     0.8194     4.0741 </r>
       <r>   -21.6918    59.0358     9.4164 </r>
       <r>   -21.6013    43.8892    13.9716 </r>
       <r>   -21.5108     0.0000    14.0000 </r>
       <r>   -21.4204     0.0000    14.0000 </r>
       <r>   -21.3299     0.0000    14.0000 </r>
       <r>   -21.2394     7.2577    14.6568 </r>
       <r>   -21.1489     0.0000    16.0000 </r>
       <r>   -21.0584    20.1871    17.8268 </r>
       <r>   -20.9679    31.1648    20.8201 </r>
       <r>   -20.8774    32.2578    24.9190 </r>
       <r>   -20.7869     0.0000    26.0000 </r>
       <r>   -20.6964    41.7681    29.7796 </r>
       <r>   -20.6059    23.1863    32.0982 </r>
       <r>   -20.5154    43.1184    36.0000 </r>
       <r>   -20.4250    10.0976    36.9137 </r>
       <r>   -20.3345     0.0000    38.0000 </r>
       <r>   -20.2440     0.0000    38.0000 </r>
       <r>   -20.1535     0.0000    38.0000 </r>
       <r>   -20.0630     0.0000    38.0000 </r>
       <r>   -19.9725    19.7570    39.7878 </r>
       <r>   -19.8820    22.1016    42.0000 </r>
       <r>   -19.7915    21.0695    43.9066 </r>
       <r>   -19.7010    89.8533    52.1310 </r>
       <r>   -19.6105    66.1519    59.9862 </r>
       <r>   -19.5200     0.0022    60.0002 </r>
       <r>   -19.4296    22.1065    62.0006 </r>
       <r>   -19.3391    66.2443    67.9952 </r>
       <r>   -19.2486    24.1483    70.1852 </r>
       <r>   -19.1581     0.0000    72.0000 </r>
       <r>   -19.0676    22.1016    74.0000 </r>
       <r>   -18.9771    22.0812    75.9981 </r>
       <r>   -18.8866    25.8639    78.3405 </r>
       <r>   -18.7961    44.2035    84.0000 </r>
       <r>   -18.7056    86.9520    91.8684 </r>
       <r>   -18.6151    20.9769    94.0000 </r>
       <r>   -18.5246     0.0000    94.0000 </r>
       <r>   -18.4341    20.7531    95.8780 </r>
       <r>   -18.3437     0.0000    96.0000 </r>
       <r>   -18.2532     0.0000    96.0000 </r>
       <r>   -18.1627     0.0000    96.0000 </r>
       <r>   -18.0722     0.0000    96.0000 </r>
       <r>   -17.9817     0.0000    96.0000 </r>
       <r>   -17.8912     0.0000    96.0000 </r>
       <r>   -17.8007     0.0000    96.0000 </r>
       <r>   -17.7102     0.0000    96.0000 </r>
       <r>   -17.6197     0.0000    96.0000 </r>
       <r>   -17.5292     0.0000    96.0000 </r>
       <r>   -17.4387     0.0000    96.0000 </r>
       <r>   -17.3483     0.0000    96.0000 </r>
       <r>   -17.2578     0.0000    96.0000 </r>
       <r>   -17.1673     0.0000    96.0000 </r>
       <r>   -17.0768     0.0000    96.0000 </r>
       <r>   -16.9863     0.0000    96.0000 </r>
       <r>   -16.8958     0.0000    96.0000 </r>
       <r>   -16.8053     0.0000    96.0000 </r>
       <r>   -16.7148     0.0000    96.0000 </r>
       <r>   -16.6243     0.0000    96.0000 </r>
       <r>   -16.5338     0.0000    96.0000 </r>
       <r>   -16.4433     0.0000    96.0000 </r>
       <r>   -16.3529     0.0000    96.0000 </r>
       <r>   -16.2624     0.0000    96.0000 </r>
       <r>   -16.1719     0.0000    96.0000 </r>
       <r>   -16.0814     0.0000    96.0000 </r>
       <r>   -15.9909     0.0000    96.0000 </r>
       <r>   -15.9004     0.0000    96.0000 </r>
       <r>   -15.8099     0.0000    96.0000 </r>
       <r>   -15.7194     0.0000    96.0000 </r>
       <r>   -15.6289     0.0000    96.0000 </r>
       <r>   -15.5384     0.0000    96.0000 </r>
       <r>   -15.4479     0.0000    96.0000 </r>
       <r>   -15.3574     0.0000    96.0000 </r>
       <r>   -15.2670     0.0000    96.0000 </r>
       <r>   -15.1765     0.0000    96.0000 </r>
       <r>   -15.0860     0.0000    96.0000 </r>
       <r>   -14.9955     0.0000    96.0000 </r>
       <r>   -14.9050     0.0000    96.0000 </r>
       <r>   -14.8145     0.0000    96.0000 </r>
       <r>   -14.7240     0.0000    96.0000 </r>
       <r>   -14.6335     0.0000    96.0000 </r>
       <r>   -14.5430     0.0000    96.0000 </r>
       <r>   -14.4525     0.0000    96.0000 </r>
       <r>   -14.3620     0.0000    96.0000 </r>
       <r>   -14.2716     0.0000    96.0000 </r>
       <r>   -14.1811     0.0000    96.0000 </r>
       <r>   -14.0906    22.1016    98.0000 </r>
       <r>   -14.0001     0.0000    98.0000 </r>
       <r>   -13.9096     0.0000    98.0000 </r>
       <r>   -13.8191     0.0000    98.0000 </r>
       <r>   -13.7286     0.0000    98.0000 </r>
       <r>   -13.6381     0.0000    98.0000 </r>
       <r>   -13.5476     0.0000    98.0000 </r>
       <r>   -13.4571     0.0000    98.0000 </r>
       <r>   -13.3666     0.0000    98.0000 </r>
       <r>   -13.2762     0.0000    98.0000 </r>
       <r>   -13.1857     8.7366    98.7906 </r>
       <r>   -13.0952    61.2573   105.5433 </r>
       <r>   -13.0047    43.2267   109.9492 </r>
       <r>   -12.9142    66.2832   115.9980 </r>
       <r>   -12.8237     0.1236   116.0112 </r>
       <r>   -12.7332    44.0796   120.0000 </r>
       <r>   -12.6427     0.0000   120.0000 </r>
       <r>   -12.5522    22.1016   122.0000 </r>
       <r>   -12.4617    44.1844   125.9983 </r>
       <r>   -12.3712    19.3923   127.7548 </r>
       <r>   -12.2807    43.9125   131.9737 </r>
       <r>   -12.1903     0.7246   132.0656 </r>
       <r>   -12.0998    21.3770   134.0000 </r>
       <r>   -12.0093     0.0000   134.0000 </r>
       <r>   -11.9188     0.0777   134.0070 </r>
       <r>   -11.8283    44.1255   138.0000 </r>
       <r>   -11.7378    79.0859   145.1566 </r>
       <r>   -11.6473    42.3520   149.8325 </r>
       <r>   -11.5568    22.0781   152.0299 </r>
       <r>   -11.4663    21.7711   154.0000 </r>
       <r>   -11.3758    22.1016   156.0000 </r>
       <r>   -11.2853     0.0000   156.0000 </r>
       <r>   -11.1949    15.4638   157.3993 </r>
       <r>   -11.1044    21.9499   159.9863 </r>
       <r>   -11.0139    44.1150   164.0000 </r>
       <r>   -10.9234    23.4541   166.1224 </r>
       <r>   -10.8329    20.7491   168.0000 </r>
       <r>   -10.7424     0.0000   168.0000 </r>
       <r>   -10.6519    22.1016   170.0000 </r>
       <r>   -10.5614     0.0000   170.0000 </r>
       <r>   -10.4709     1.8966   170.1716 </r>
       <r>   -10.3804    22.1018   174.0000 </r>
       <r>   -10.2899    22.1014   176.0000 </r>
       <r>   -10.1995    41.4136   179.7476 </r>
       <r>   -10.1090     0.0000   180.0000 </r>
       <r>   -10.0185     0.0000   180.0000 </r>
       <r>    -9.9280     0.0000   180.0000 </r>
       <r>    -9.8375    22.1016   182.0000 </r>
       <r>    -9.7470    44.0806   185.9889 </r>
       <r>    -9.6565    44.0743   189.9894 </r>
       <r>    -9.5660    22.0790   191.9980 </r>
       <r>    -9.4755    45.4156   196.1117 </r>
       <r>    -9.3850    20.8593   198.0000 </r>
       <r>    -9.2945    46.1109   202.1726 </r>
       <r>    -9.2041   167.1966   219.1298 </r>
       <r>    -9.1136    61.4818   229.5636 </r>
       <r>    -9.0231    43.1255   235.9973 </r>
       <r>    -8.9326    22.1014   238.0000 </r>
       <r>    -8.8421    15.6751   239.4185 </r>
       <r>    -8.7516    22.1016   242.0000 </r>
       <r>    -8.6611     1.9091   242.1728 </r>
       <r>    -8.5706     0.0000   244.0000 </r>
       <r>    -8.4801    35.5054   247.2129 </r>
       <r>    -8.3896    22.1016   250.0000 </r>
       <r>    -8.2991    22.1006   251.9999 </r>
       <r>    -8.2086    28.1576   254.5480 </r>
       <r>    -8.1182    84.3186   263.7454 </r>
       <r>    -8.0277    20.4755   265.8529 </r>
       <r>    -7.9372    43.7112   269.9555 </r>
       <r>    -7.8467    44.0452   273.9857 </r>
       <r>    -7.7562    66.5233   282.0198 </r>
       <r>    -7.6657   116.0394   292.5203 </r>
       <r>    -7.5752    44.2026   298.0000 </r>
       <r>    -7.4847     0.0000   298.0000 </r>
       <r>    -7.3942    71.4213   304.4630 </r>
       <r>    -7.3037    22.1017   308.0000 </r>
       <r>    -7.2132    22.1015   310.0000 </r>
       <r>    -7.1228     0.0000   310.0000 </r>
       <r>    -7.0323     0.0000   310.0000 </r>
       <r>    -6.9418     0.0000   310.0000 </r>
       <r>    -6.8513     0.2932   310.0265 </r>
       <r>    -6.7608    30.7070   312.8052 </r>
       <r>    -6.6703     0.0000   314.0000 </r>
       <r>    -6.5798    44.2010   317.9998 </r>
       <r>    -6.4893    75.4299   324.8257 </r>
       <r>    -6.3988   124.0875   337.2288 </r>
       <r>    -6.3083    64.4067   343.8282 </r>
       <r>    -6.2178     0.0000   344.0000 </r>
       <r>    -6.1274     0.2338   344.0212 </r>
       <r>    -6.0369    21.8679   346.0000 </r>
       <r>    -5.9464    22.1181   348.0015 </r>
       <r>    -5.8559    85.7069   355.7574 </r>
       <r>    -5.7654    43.3111   359.9193 </r>
       <r>    -5.6749     0.0000   360.0000 </r>
       <r>    -5.5844     0.0000   360.0000 </r>
       <r>    -5.4939    22.1016   362.0000 </r>
       <r>    -5.4034     0.0000   362.0000 </r>
       <r>    -5.3129     0.0000   362.0000 </r>
       <r>    -5.2224     8.6050   362.7787 </r>
       <r>    -5.1319    79.6105   371.2044 </r>
       <r>    -5.0415    22.1015   374.0000 </r>
       <r>    -4.9510    28.0377   376.5372 </r>
       <r>    -4.8605    66.3048   384.0000 </r>
       <r>    -4.7700     0.0000   384.0000 </r>
       <r>    -4.6795    22.1016   386.0000 </r>
       <r>    -4.5890     0.0000   386.0000 </r>
       <r>    -4.4985     0.0000   386.0000 </r>
       <r>    -4.4080     0.0000   386.0000 </r>
       <r>    -4.3175     0.0000   386.0000 </r>
       <r>    -4.2270     0.0000   386.0000 </r>
       <r>    -4.1365     0.0000   386.0000 </r>
       <r>    -4.0461     0.0000   386.0000 </r>
       <r>    -3.9556     0.0000   386.0000 </r>
       <r>    -3.8651     0.0000   386.0000 </r>
       <r>    -3.7746     0.0000   386.0000 </r>
       <r>    -3.6841     0.0000   386.0000 </r>
       <r>    -3.5936     0.0000   386.0000 </r>
       <r>    -3.5031     0.0000   386.0000 </r>
       <r>    -3.4126     0.0000   386.0000 </r>
       <r>    -3.3221     0.0000   386.0000 </r>
       <r>    -3.2316     0.0000   386.0000 </r>
       <r>    -3.1411     0.0000   386.0000 </r>
       <r>    -3.0507     0.0000   386.0000 </r>
       <r>    -2.9602     0.0000   386.0000 </r>
       <r>    -2.8697     0.0000   386.0000 </r>
       <r>    -2.7792     0.0000   386.0000 </r>
       <r>    -2.6887     0.0000   386.0000 </r>
       <r>    -2.5982     0.0000   386.0000 </r>
       <r>    -2.5077     0.0000   386.0000 </r>
       <r>    -2.4172     0.0000   386.0000 </r>
       <r>    -2.3267     0.0000   386.0000 </r>
       <r>    -2.2362     0.0000   386.0000 </r>
       <r>    -2.1457     0.0000   386.0000 </r>
       <r>    -2.0552     0.0000   386.0000 </r>
       <r>    -1.9648     0.0000   386.0000 </r>
       <r>    -1.8743     0.0000   386.0000 </r>
       <r>    -1.7838     0.0000   386.0000 </r>
       <r>    -1.6933     0.0000   386.0000 </r>
       <r>    -1.6028     0.0000   386.0000 </r>
       <r>    -1.5123     0.0000   386.0000 </r>
       <r>    -1.4218     0.0000   386.0000 </r>
       <r>    -1.3313     0.2031   386.0184 </r>
       <r>    -1.2408    21.8985   388.0000 </r>
       <r>    -1.1503    22.1016   390.0000 </r>
       <r>    -1.0598     0.0000   390.0000 </r>
       <r>    -0.9694     0.0000   390.0000 </r>
       <r>    -0.8789     0.0000   390.0000 </r>
       <r>    -0.7884     0.0000   390.0000 </r>
       <r>    -0.6979     0.0000   390.0000 </r>
       <r>    -0.6074     0.0000   390.0000 </r>
       <r>    -0.5169     0.0000   390.0000 </r>
       <r>    -0.4264     0.0000   390.0000 </r>
       <r>    -0.3359     0.0000   390.0000 </r>
       <r>    -0.2454     0.0000   390.0000 </r>
       <r>    -0.1549     0.0000   390.0000 </r>
       <r>    -0.0644     0.0000   390.0000 </r>
       <r>     0.0260     0.0000   390.0000 </r>
       <r>     0.1165    22.1016   392.0000 </r>
       <r>     0.2070    13.5824   393.2291 </r>
       <r>     0.2975    79.0692   401.1551 </r>
       <r>     0.3880    26.7624   406.4218 </r>
       <r>     0.4785    32.7746   410.9658 </r>
       <r>     0.5690    22.1016   414.0000 </r>
       <r>     0.6595    22.1016   416.0000 </r>
       <r>     0.7500    31.3264   418.8348 </r>
       <r>     0.8405   101.8329   429.2150 </r>
       <r>     0.9310    44.0260   434.0000 </r>
       <r>     1.0214    34.9709   437.1646 </r>
       <r>     1.1119    25.8596   440.3401 </r>
       <r>     1.2024     0.0000   442.0000 </r>
       <r>     1.2929     0.0000   442.0000 </r>
       <r>     1.3834     0.0000   442.0000 </r>
       <r>     1.4739     0.0276   442.0025 </r>
       <r>     1.5644    22.0740   444.0000 </r>
       <r>     1.6549     0.0914   444.0083 </r>
       <r>     1.7454   118.5863   454.7393 </r>
       <r>     1.8359    46.8561   460.2401 </r>
       <r>     1.9264   116.7545   472.6356 </r>
       <r>     2.0169    22.8848   476.0709 </r>
       <r>     2.1073    47.6784   480.3853 </r>
       <r>     2.1978    66.2746   488.0000 </r>
       <r>     2.2883     0.0000   488.0000 </r>
       <r>     2.3788     0.0000   488.0000 </r>
       <r>     2.4693     0.0000   488.0000 </r>
       <r>     2.5598     0.0000   488.0000 </r>
       <r>     2.6503     0.0000   488.0000 </r>
       <r>     2.7408     0.0000   488.0000 </r>
       <r>     2.8313     0.0000   488.0000 </r>
       <r>     2.9218     0.0000   488.0000 </r>
       <r>     3.0123     0.0000   488.0000 </r>
       <r>     3.1027     0.0000   488.0000 </r>
       <r>     3.1932     0.0000   488.0000 </r>
       <r>     3.2837     0.0000   488.0000 </r>
       <r>     3.3742     0.0000   488.0000 </r>
      </set>
     </set>
    </array>
   </total>
  </dos>
 </calculation>
 <structure name="finalpos" >
  <crystal>
   <varray name="basis" >
    <v>      17.59966831       0.00000000       0.00000000 </v>
    <v>      -8.79983416      15.24175986       0.00000000 </v>
    <v>       0.00000000       0.00000000      19.92151445 </v>
   </varray>
   <i name="volume">   5343.94461817 </i>
   <varray name="rec_basis" >
    <v>       0.05681925       0.03280461       0.00000000 </v>
    <v>       0.00000000       0.06560922       0.00000000 </v>
    <v>       0.00000000       0.00000000       0.05019699 </v>
   </varray>
  </crystal>
  <varray name="positions" >
   <v>       0.99943010       0.00005992       0.50000000 </v>
   <v>       0.14164706       0.99871895       0.50000000 </v>
   <v>       0.28492260       0.99841663       0.50000000 </v>
   <v>       0.42850047       0.99871895       0.50000000 </v>
   <v>       0.57205839       0.00005992       0.50000000 </v>
   <v>       0.71530655       0.00214292       0.50000000 </v>
   <v>       0.85826494       0.00214292       0.50000000 </v>
   <v>       0.00080792       0.14408264       0.50000000 </v>
   <v>       0.14259355       0.14187964       0.50000000 </v>
   <v>       0.28470221       0.14112972       0.50000000 </v>
   <v>       0.42785608       0.14112972       0.50000000 </v>
   <v>       0.57128286       0.14244783       0.50000000 </v>
   <v>       0.71470329       0.14408264       0.50000000 </v>
   <v>       0.85805263       0.14467669       0.50000000 </v>
   <v>       0.00095476       0.28713011       0.50000000 </v>
   <v>       0.14372552       0.28645370       0.50000000 </v>
   <v>       0.28540977       0.28469374       0.50000000 </v>
   <v>       0.42724431       0.28306005       0.50000000 </v>
   <v>       0.57071254       0.28469374       0.50000000 </v>
   <v>       0.71415674       0.28645370       0.50000000 </v>
   <v>       0.85760392       0.28713011       0.50000000 </v>
   <v>       0.00054479       0.42966101       0.50000000 </v>
   <v>       0.14422690       0.42957551       0.50000000 </v>
   <v>       0.28730213       0.42918005       0.50000000 </v>
   <v>       0.42797654       0.42569726       0.50000000 </v>
   <v>       0.56914930       0.42569726       0.50000000 </v>
   <v>       0.71330650       0.42918005       0.50000000 </v>
   <v>       0.85677719       0.42957551       0.50000000 </v>
   <v>       0.99928255       0.57181462       0.50000000 </v>
   <v>       0.14396064       0.57181462       0.50000000 </v>
   <v>       0.28862787       0.57181625       0.50000000 </v>
   <v>       0.43313209       0.57215564       0.50000000 </v>
   <v>       0.71045212       0.57215564       0.50000000 </v>
   <v>       0.85461695       0.57181625       0.50000000 </v>
   <v>       0.99707234       0.71370518       0.50000000 </v>
   <v>       0.14255519       0.71368182       0.50000000 </v>
   <v>       0.28806142       0.71370518       0.50000000 </v>
   <v>       0.43464191       0.71382540       0.50000000 </v>
   <v>       0.58510826       0.71626937       0.50000000 </v>
   <v>       0.70258968       0.71626937       0.50000000 </v>
   <v>       0.85061206       0.71382540       0.50000000 </v>
   <v>       0.99777175       0.85613493       0.50000000 </v>
   <v>       0.14160898       0.85591288       0.50000000 </v>
   <v>       0.28573247       0.85591288       0.50000000 </v>
   <v>       0.42979175       0.85613493       0.50000000 </v>
   <v>       0.57342541       0.85758690       0.50000000 </v>
   <v>       0.71640633       0.86138410       0.50000000 </v>
   <v>       0.85559006       0.85758690       0.50000000 </v>
   <v>       0.04754270       0.09547788       0.50000000 </v>
   <v>       0.18957833       0.09405657       0.50000000 </v>
   <v>       0.33254182       0.09365506       0.50000000 </v>
   <v>       0.47590681       0.09405657       0.50000000 </v>
   <v>       0.61936376       0.09547788       0.50000000 </v>
   <v>       0.76280004       0.09719274       0.50000000 </v>
   <v>       0.90582126       0.09719274       0.50000000 </v>
   <v>       0.04854983       0.23934281       0.50000000 </v>
   <v>       0.19048138       0.23782962       0.50000000 </v>
   <v>       0.33234878       0.23634667       0.50000000 </v>
   <v>       0.47542646       0.23634667       0.50000000 </v>
   <v>       0.61877681       0.23782962       0.50000000 </v>
   <v>       0.76222155       0.23934281       0.50000000 </v>
   <v>       0.90562797       0.23982737       0.50000000 </v>
   <v>       0.04871288       0.38232824       0.50000000 </v>
   <v>       0.19188940       0.38184213       0.50000000 </v>
   <v>       0.33352206       0.38013969       0.50000000 </v>
   <v>       0.47472270       0.37801683       0.50000000 </v>
   <v>       0.61804620       0.38013969       0.50000000 </v>
   <v>       0.76138130       0.38184213       0.50000000 </v>
   <v>       0.90504393       0.38232824       0.50000000 </v>
   <v>       0.04810654       0.52478452       0.50000000 </v>
   <v>       0.19263929       0.52476864       0.50000000 </v>
   <v>       0.33696521       0.52455433       0.50000000 </v>
   <v>       0.47833704       0.52146721       0.50000000 </v>
   <v>       0.61455874       0.52146721       0.50000000 </v>
   <v>       0.75901769       0.52455433       0.50000000 </v>
   <v>       0.90355792       0.52476864       0.50000000 </v>
   <v>       0.04642473       0.66685228       0.50000000 </v>
   <v>       0.19185612       0.66685228       0.50000000 </v>
   <v>       0.33777931       0.66688794       0.50000000 </v>
   <v>       0.48615700       0.66710760       0.50000000 </v>
   <v>       0.75237918       0.66710760       0.50000000 </v>
   <v>       0.90053720       0.66688794       0.50000000 </v>
   <v>       0.04582562       0.80879365       0.50000000 </v>
   <v>       0.19009580       0.80876303       0.50000000 </v>
   <v>       0.33439660       0.80879365       0.50000000 </v>
   <v>       0.47844872       0.80897069       0.50000000 </v>
   <v>       0.62209487       0.81129474       0.50000000 </v>
   <v>       0.76062845       0.81129474       0.50000000 </v>
   <v>       0.90195054       0.80897069       0.50000000 </v>
   <v>       0.04629157       0.95154386       0.50000000 </v>
   <v>       0.18948291       0.95113037       0.50000000 </v>
   <v>       0.33307603       0.95113037       0.50000000 </v>
   <v>       0.47668087       0.95154386       0.50000000 </v>
   <v>       0.62015751       0.95313740       0.50000000 </v>
   <v>       0.76355772       0.95568687       0.50000000 </v>
   <v>       0.90440847       0.95313740       0.50000000 </v>
   <v>       0.56830873       0.56518888       0.50000000 </v>
  </varray>
 </structure>
</modeling>
