<?xml version="1.0" encoding="ISO-8859-1"?>
<modeling>
 <generator>
  <i name="program" type="string">vasp </i>
  <i name="version" type="string">5.4.4.18Apr17-6-g9f103f2a35  </i>
  <i name="subversion" type="string">(build Oct 18 2020 22:16:12) gamma-only         parallel </i>
  <i name="platform" type="string">UA-vaughan-2020a </i>
  <i name="date" type="string">2023 03 21 </i>
  <i name="time" type="string">22:30:21 </i>
 </generator>
 <incar>
  <i type="string" name="PREC">accurate</i>
  <i type="int" name="IALGO">    38</i>
  <i type="logical" name="ADDGRID"> T  </i>
  <i type="int" name="NELMIN">     5</i>
  <i type="int" name="IBRION">    -1</i>
  <i name="EDIFF">      0.00000001</i>
  <i name="EDIFFG">     -0.00000001</i>
  <i type="int" name="NSW">     0</i>
  <i type="int" name="ISIF">     2</i>
  <i name="ENCUT">    500.00000000</i>
  <i type="logical" name="LREAL"> F  </i>
  <i type="int" name="ISMEAR">     0</i>
  <i name="SIGMA">      0.01000000</i>
  <i type="logical" name="LWAVE"> F  </i>
  <i type="logical" name="LCHARG"> F  </i>
  <v type="int" name="KPOINT_BSE">    -1     0     0     0</v>
 </incar>
 <structure name="primitive_cell" >
  <crystal>
   <varray name="basis" >
    <v>      17.59966831       0.00000000       0.00000000 </v>
    <v>      -8.79983416      15.24175986       0.00000000 </v>
    <v>       0.00000000       0.00000000      19.92151445 </v>
   </varray>
   <i name="volume">   5343.94461817 </i>
   <varray name="rec_basis" >
    <v>       0.05681925       0.03280461       0.00000000 </v>
    <v>       0.00000000       0.06560922       0.00000000 </v>
    <v>       0.00000000       0.00000000       0.05019699 </v>
   </varray>
  </crystal>
  <varray name="positions" >
   <v>      -0.00056990       0.00005992      -0.50000000 </v>
   <v>      -0.09559153      -0.04686260      -0.50000000 </v>
   <v>       0.04629157      -0.04845614      -0.50000000 </v>
   <v>       0.04754270       0.09547788      -0.50000000 </v>
   <v>      -0.14173506       0.00214292      -0.50000000 </v>
   <v>       0.14259355       0.14244783      -0.50000000 </v>
   <v>       0.14164706      -0.00128105      -0.50000000 </v>
   <v>      -0.00222825      -0.14386507      -0.50000000 </v>
   <v>      -0.14440994      -0.14241310      -0.50000000 </v>
   <v>       0.00080792       0.14408264      -0.50000000 </v>
   <v>       0.18957833       0.09405657      -0.50000000 </v>
   <v>      -0.09417874       0.09719274      -0.50000000 </v>
   <v>      -0.09804946      -0.19102931      -0.50000000 </v>
   <v>      -0.23644228      -0.04431313      -0.50000000 </v>
   <v>      -0.23937155      -0.18870526      -0.50000000 </v>
   <v>       0.19048138       0.23782962      -0.50000000 </v>
   <v>       0.04582562      -0.19120635      -0.50000000 </v>
   <v>       0.18948291      -0.04886963      -0.50000000 </v>
   <v>       0.04854983       0.23934281      -0.50000000 </v>
   <v>      -0.28359367      -0.13899210       0.49962381 </v>
   <v>       0.28470221       0.14112972      -0.50000000 </v>
   <v>      -0.14194737       0.14467669      -0.50000000 </v>
   <v>      -0.14938794      -0.28617460      -0.50000000 </v>
   <v>       0.14160898      -0.14408712      -0.50000000 </v>
   <v>       0.14372552       0.28645370      -0.50000000 </v>
   <v>      -0.28469345       0.00214292      -0.50000000 </v>
   <v>      -0.00292766      -0.28629482      -0.50000000 </v>
   <v>       0.28540977       0.28469374      -0.50000000 </v>
   <v>       0.00095476       0.28713011      -0.50000000 </v>
   <v>       0.28492260      -0.00158337      -0.50000000 </v>
   <v>      -0.29741032      -0.28373063      -0.50000000 </v>
   <v>      -0.09946280      -0.33311206      -0.50000000 </v>
   <v>       0.33234878       0.23634667      -0.50000000 </v>
   <v>      -0.23719996       0.09719274      -0.50000000 </v>
   <v>       0.33254182       0.09365506      -0.50000000 </v>
   <v>      -0.09437203       0.23982737      -0.50000000 </v>
   <v>      -0.24762082      -0.33289240      -0.50000000 </v>
   <v>      -0.37790513      -0.18870526      -0.50000000 </v>
   <v>       0.19188940       0.38184213      -0.50000000 </v>
   <v>       0.19009580      -0.19123697      -0.50000000 </v>
   <v>      -0.37984249      -0.04686260      -0.50000000 </v>
   <v>       0.04642473      -0.33314772      -0.50000000 </v>
   <v>       0.33352206       0.38013969      -0.50000000 </v>
   <v>       0.04871288       0.38232824      -0.50000000 </v>
   <v>       0.33307603      -0.04886963      -0.50000000 </v>
   <v>      -0.41489174      -0.28373063      -0.50000000 </v>
   <v>      -0.42657459      -0.14241310      -0.50000000 </v>
   <v>       0.42724431       0.28306005      -0.50000000 </v>
   <v>      -0.14538305      -0.42818375      -0.50000000 </v>
   <v>      -0.28529671       0.14408264      -0.50000000 </v>
   <v>      -0.28954788      -0.42784436      -0.50000000 </v>
   <v>       0.42785608       0.14112972      -0.50000000 </v>
   <v>      -0.14239608       0.28713011      -0.50000000 </v>
   <v>       0.14422690       0.42957551      -0.50000000 </v>
   <v>       0.28730213       0.42918005      -0.50000000 </v>
   <v>       0.14255519      -0.28631818      -0.50000000 </v>
   <v>       0.28573247      -0.14408712      -0.50000000 </v>
   <v>      -0.24098231      -0.47544567      -0.50000000 </v>
   <v>       0.47542646       0.23634667      -0.50000000 </v>
   <v>      -0.23777845       0.23934281      -0.50000000 </v>
   <v>       0.42797654       0.42569726      -0.50000000 </v>
   <v>      -0.42794161       0.00005992      -0.50000000 </v>
   <v>      -0.00071745      -0.42818538      -0.50000000 </v>
   <v>       0.00054479       0.42966101      -0.50000000 </v>
   <v>       0.42850047      -0.00128105      -0.50000000 </v>
   <v>      -0.43169127      -0.43481112      -0.50000000 </v>
   <v>       0.47472270       0.37801683      -0.50000000 </v>
   <v>      -0.09644208      -0.47523136      -0.50000000 </v>
   <v>      -0.38063624       0.09547788      -0.50000000 </v>
   <v>       0.47590681       0.09405657      -0.50000000 </v>
   <v>      -0.09495607       0.38232824      -0.50000000 </v>
   <v>      -0.38544126      -0.47853279      -0.50000000 </v>
   <v>       0.48615700      -0.33289240      -0.50000000 </v>
   <v>       0.47844872      -0.19102931      -0.50000000 </v>
   <v>       0.19263929      -0.47523136      -0.50000000 </v>
   <v>       0.33696521      -0.47544567      -0.50000000 </v>
   <v>       0.19185612      -0.33314772      -0.50000000 </v>
   <v>       0.33439660      -0.19120635      -0.50000000 </v>
   <v>       0.43464191      -0.28617460      -0.50000000 </v>
   <v>      -0.28669350       0.42918005      -0.50000000 </v>
   <v>      -0.42928746       0.28469374      -0.50000000 </v>
   <v>      -0.28584326       0.28645370      -0.50000000 </v>
   <v>       0.28862787      -0.42818375      -0.50000000 </v>
   <v>       0.28806142      -0.28629482      -0.50000000 </v>
   <v>       0.47668087      -0.04845614      -0.50000000 </v>
   <v>       0.47833704      -0.47853279      -0.50000000 </v>
   <v>       0.04810654      -0.47521548      -0.50000000 </v>
   <v>       0.43313209      -0.42784436      -0.50000000 </v>
   <v>       0.42979175      -0.14386507      -0.50000000 </v>
   <v>      -0.43085070       0.42569726      -0.50000000 </v>
   <v>      -0.14322281       0.42957551      -0.50000000 </v>
   <v>      -0.42871714       0.14244783      -0.50000000 </v>
   <v>       0.14396064      -0.42818538      -0.50000000 </v>
   <v>      -0.23861870       0.38184213      -0.50000000 </v>
   <v>      -0.38122319       0.23782962      -0.50000000 </v>
   <v>      -0.38195380       0.38013969      -0.50000000 </v>
   <v>       0.33777931      -0.33311206      -0.50000000 </v>
  </varray>
 </structure>
 <varray name="primitive_index" >
  <v type="int" >        1 </v>
  <v type="int" >       96 </v>
  <v type="int" >       90 </v>
  <v type="int" >       49 </v>
  <v type="int" >        7 </v>
  <v type="int" >        9 </v>
  <v type="int" >        2 </v>
  <v type="int" >       42 </v>
  <v type="int" >       48 </v>
  <v type="int" >        8 </v>
  <v type="int" >       50 </v>
  <v type="int" >       55 </v>
  <v type="int" >       89 </v>
  <v type="int" >       95 </v>
  <v type="int" >       88 </v>
  <v type="int" >       57 </v>
  <v type="int" >       83 </v>
  <v type="int" >       91 </v>
  <v type="int" >       56 </v>
  <v type="int" >       47 </v>
  <v type="int" >       10 </v>
  <v type="int" >       14 </v>
  <v type="int" >       41 </v>
  <v type="int" >       43 </v>
  <v type="int" >       16 </v>
  <v type="int" >        6 </v>
  <v type="int" >       35 </v>
  <v type="int" >       17 </v>
  <v type="int" >       15 </v>
  <v type="int" >        3 </v>
  <v type="int" >       40 </v>
  <v type="int" >       82 </v>
  <v type="int" >       58 </v>
  <v type="int" >       54 </v>
  <v type="int" >       51 </v>
  <v type="int" >       62 </v>
  <v type="int" >       81 </v>
  <v type="int" >       87 </v>
  <v type="int" >       64 </v>
  <v type="int" >       84 </v>
  <v type="int" >       94 </v>
  <v type="int" >       77 </v>
  <v type="int" >       65 </v>
  <v type="int" >       63 </v>
  <v type="int" >       92 </v>
  <v type="int" >       39 </v>
  <v type="int" >       46 </v>
  <v type="int" >       18 </v>
  <v type="int" >       34 </v>
  <v type="int" >       13 </v>
  <v type="int" >       33 </v>
  <v type="int" >       11 </v>
  <v type="int" >       21 </v>
  <v type="int" >       23 </v>
  <v type="int" >       24 </v>
  <v type="int" >       36 </v>
  <v type="int" >       44 </v>
  <v type="int" >       75 </v>
  <v type="int" >       59 </v>
  <v type="int" >       61 </v>
  <v type="int" >       25 </v>
  <v type="int" >        5 </v>
  <v type="int" >       29 </v>
  <v type="int" >       22 </v>
  <v type="int" >        4 </v>
  <v type="int" >       97 </v>
  <v type="int" >       66 </v>
  <v type="int" >       76 </v>
  <v type="int" >       53 </v>
  <v type="int" >       52 </v>
  <v type="int" >       69 </v>
  <v type="int" >       74 </v>
  <v type="int" >       80 </v>
  <v type="int" >       86 </v>
  <v type="int" >       71 </v>
  <v type="int" >       72 </v>
  <v type="int" >       78 </v>
  <v type="int" >       85 </v>
  <v type="int" >       38 </v>
  <v type="int" >       27 </v>
  <v type="int" >       19 </v>
  <v type="int" >       20 </v>
  <v type="int" >       31 </v>
  <v type="int" >       37 </v>
  <v type="int" >       93 </v>
  <v type="int" >       73 </v>
  <v type="int" >       70 </v>
  <v type="int" >       32 </v>
  <v type="int" >       45 </v>
  <v type="int" >       26 </v>
  <v type="int" >       28 </v>
  <v type="int" >       12 </v>
  <v type="int" >       30 </v>
  <v type="int" >       68 </v>
  <v type="int" >       60 </v>
  <v type="int" >       67 </v>
  <v type="int" >       79 </v>
 </varray>
 <kpoints>
  <generation param="Gamma">
   <v type="int" name="divisions">       1        1        1 </v>
   <v name="usershift">      0.00000000       0.00000000       0.00000000 </v>
   <v name="genvec1">      1.00000000      -0.00000000       0.00000000 </v>
   <v name="genvec2">      0.00000000       1.00000000       0.00000000 </v>
   <v name="genvec3">      0.00000000       0.00000000       1.00000000 </v>
   <v name="shift">      0.00000000       0.00000000       0.00000000 </v>
  </generation>
  <varray name="kpointlist" >
   <v>       0.00000000       0.00000000       0.00000000 </v>
  </varray>
  <varray name="weights" >
   <v>       1.00000000 </v>
  </varray>
 </kpoints>
 <parameters>
  <separator name="general" >
   <i type="string" name="SYSTEM">unknown system</i>
   <i type="logical" name="LCOMPAT"> F  </i>
  </separator>
  <separator name="electronic" >
   <i type="string" name="PREC">accura</i>
   <i name="ENMAX">    500.00000000</i>
   <i name="ENAUG">    644.87300000</i>
   <i name="EDIFF">      0.00000001</i>
   <i type="int" name="IALGO">    38</i>
   <i type="int" name="IWAVPR">    10</i>
   <i type="int" name="NBANDS">   244</i>
   <i name="NELECT">    388.00000000</i>
   <i type="int" name="TURBO">     0</i>
   <i type="int" name="IRESTART">     0</i>
   <i type="int" name="NREBOOT">     0</i>
   <i type="int" name="NMIN">     0</i>
   <i name="EREF">      0.00000000</i>
   <separator name="electronic smearing" >
    <i type="int" name="ISMEAR">     0</i>
    <i name="SIGMA">      0.01000000</i>
    <i name="KSPACING">      0.50000000</i>
    <i type="logical" name="KGAMMA"> T  </i>
   </separator>
   <separator name="electronic projectors" >
    <i type="logical" name="LREAL"> F  </i>
    <v name="ROPT">      0.00000000      0.00000000      0.00000000</v>
    <i type="int" name="LMAXPAW">  -100</i>
    <i type="int" name="LMAXMIX">     2</i>
    <i type="logical" name="NLSPLINE"> F  </i>
   </separator>
   <separator name="electronic startup" >
    <i type="int" name="ISTART">     0</i>
    <i type="int" name="ICHARG">     2</i>
    <i type="int" name="INIWAV">     1</i>
   </separator>
   <separator name="electronic spin" >
    <i type="int" name="ISPIN">     1</i>
    <i type="logical" name="LNONCOLLINEAR"> F  </i>
    <v name="MAGMOM">      1.00000000      1.00000000      1.00000000      1.00000000      1.00000000      1.00000000      1.00000000      1.00000000      1.00000000      1.00000000      1.00000000      1.00000000      1.00000000      1.00000000      1.00000000      1.00000000      1.00000000      1.00000000      1.00000000      1.00000000
      1.00000000      1.00000000      1.00000000      1.00000000      1.00000000      1.00000000      1.00000000      1.00000000      1.00000000      1.00000000      1.00000000      1.00000000      1.00000000      1.00000000      1.00000000      1.00000000      1.00000000      1.00000000      1.00000000      1.00000000
      1.00000000      1.00000000      1.00000000      1.00000000      1.00000000      1.00000000      1.00000000      1.00000000      1.00000000      1.00000000      1.00000000      1.00000000      1.00000000      1.00000000      1.00000000      1.00000000      1.00000000      1.00000000      1.00000000      1.00000000
      1.00000000      1.00000000      1.00000000      1.00000000      1.00000000      1.00000000      1.00000000      1.00000000      1.00000000      1.00000000      1.00000000      1.00000000      1.00000000      1.00000000      1.00000000      1.00000000      1.00000000      1.00000000      1.00000000      1.00000000
      1.00000000      1.00000000      1.00000000      1.00000000      1.00000000      1.00000000      1.00000000      1.00000000      1.00000000      1.00000000      1.00000000      1.00000000      1.00000000      1.00000000      1.00000000      1.00000000      1.00000000</v>
    <i name="NUPDOWN">     -1.00000000</i>
    <i type="logical" name="LSORBIT"> F  </i>
    <v name="SAXIS">      0.00000000      0.00000000      1.00000000</v>
    <i type="logical" name="LSPIRAL"> F  </i>
    <v name="QSPIRAL">      0.00000000      0.00000000      0.00000000</v>
    <i type="logical" name="LZEROZ"> F  </i>
   </separator>
   <separator name="electronic exchange-correlation" >
    <i type="logical" name="LASPH"> F  </i>
    <i type="logical" name="LMETAGGA"> F  </i>
   </separator>
   <separator name="electronic convergence" >
    <i type="int" name="NELM">    60</i>
    <i type="int" name="NELMDL">    -5</i>
    <i type="int" name="NELMIN">     5</i>
    <i name="ENINI">    500.00000000</i>
    <separator name="electronic convergence detail" >
     <i type="logical" name="LDIAG"> T  </i>
     <i type="logical" name="LSUBROT"> F  </i>
     <i name="WEIMIN">      0.00000000</i>
     <i name="EBREAK">      0.00000000</i>
     <i name="DEPER">      0.30000000</i>
     <i type="int" name="NRMM">     4</i>
     <i name="TIME">      0.40000000</i>
    </separator>
   </separator>
   <separator name="electronic mixer" >
    <i name="AMIX">      0.40000000</i>
    <i name="BMIX">      1.00000000</i>
    <i name="AMIN">      0.10000000</i>
    <i name="AMIX_MAG">      1.60000000</i>
    <i name="BMIX_MAG">      1.00000000</i>
    <separator name="electronic mixer details" >
     <i type="int" name="IMIX">     4</i>
     <i type="logical" name="MIXFIRST"> F  </i>
     <i type="int" name="MAXMIX">   -45</i>
     <i name="WC">    100.00000000</i>
     <i type="int" name="INIMIX">     1</i>
     <i type="int" name="MIXPRE">     1</i>
     <i type="int" name="MREMOVE">     5</i>
    </separator>
   </separator>
   <separator name="electronic dipolcorrection" >
    <i type="logical" name="LDIPOL"> F  </i>
    <i type="logical" name="LMONO"> F  </i>
    <i type="int" name="IDIPOL">     0</i>
    <i name="EPSILON">      1.00000000</i>
    <v name="DIPOL">   -100.00000000   -100.00000000   -100.00000000</v>
    <i name="EFIELD">      0.00000000</i>
   </separator>
  </separator>
  <separator name="grids" >
   <i type="int" name="NGX">   128</i>
   <i type="int" name="NGY">   128</i>
   <i type="int" name="NGZ">   150</i>
   <i type="int" name="NGXF">   256</i>
   <i type="int" name="NGYF">   256</i>
   <i type="int" name="NGZF">   300</i>
   <i type="logical" name="ADDGRID"> T  </i>
  </separator>
  <separator name="ionic" >
   <i type="int" name="NSW">     0</i>
   <i type="int" name="IBRION">    -1</i>
   <i type="int" name="MDALGO">     0</i>
   <i type="int" name="ISIF">     2</i>
   <i name="PSTRESS">      0.00000000</i>
   <i name="EDIFFG">     -0.00000001</i>
   <i type="int" name="NFREE">     0</i>
   <i name="POTIM">      0.50000000</i>
   <i name="SMASS">     -3.00000000</i>
   <i name="SCALEE">      1.00000000</i>
  </separator>
  <separator name="ionic md" >
   <i name="TEBEG">      0.00010000</i>
   <i name="TEEND">      0.00010000</i>
   <i type="int" name="NBLOCK">     1</i>
   <i type="int" name="KBLOCK">     1</i>
   <i type="int" name="NPACO">   256</i>
   <i name="APACO">     16.00000000</i>
  </separator>
  <separator name="symmetry" >
   <i type="int" name="ISYM">     2</i>
   <i name="SYMPREC">      0.00001000</i>
  </separator>
  <separator name="dos" >
   <i type="int" name="LORBIT">     0</i>
   <v name="RWIGS">     -1.00000000     -1.00000000     -1.00000000</v>
   <i type="int" name="NEDOS">   301</i>
   <i name="EMIN">     10.00000000</i>
   <i name="EMAX">    -10.00000000</i>
   <i name="EFERMI">      0.00000000</i>
  </separator>
  <separator name="writing" >
   <i type="int" name="NWRITE">     2</i>
   <i type="logical" name="LWAVE"> F  </i>
   <i type="logical" name="LDOWNSAMPLE"> F  </i>
   <i type="logical" name="LCHARG"> F  </i>
   <i type="logical" name="LPARD"> F  </i>
   <i type="logical" name="LVTOT"> F  </i>
   <i type="logical" name="LVHAR"> F  </i>
   <i type="logical" name="LELF"> F  </i>
   <i type="logical" name="LOPTICS"> F  </i>
   <v name="STM">      0.00000000      0.00000000      0.00000000      0.00000000      0.00000000      0.00000000      0.00000000</v>
  </separator>
  <separator name="performance" >
   <i type="int" name="NPAR">     4</i>
   <i type="int" name="NSIM">     4</i>
   <i type="int" name="NBLK">    -1</i>
   <i type="logical" name="LPLANE"> T  </i>
   <i type="logical" name="LSCALAPACK"> T  </i>
   <i type="logical" name="LSCAAWARE"> F  </i>
   <i type="logical" name="LSCALU"> F  </i>
   <i type="logical" name="LASYNC"> F  </i>
   <i type="logical" name="LORBITALREAL"> F  </i>
  </separator>
  <separator name="miscellaneous" >
   <i type="int" name="IDIOT">     3</i>
   <i type="int" name="ISPECIAL">     0</i>
   <i type="logical" name="LMUSIC"> F  </i>
   <v name="POMASS">     10.81100000     14.00100000     12.01100000</v>
   <v name="DARWINR">      0.00000000      0.00000000      0.00000000</v>
   <v name="DARWINV">      1.00000000      1.00000000      1.00000000</v>
   <i type="logical" name="LCORR"> T  </i>
  </separator>
  <i type="logical" name="GGA_COMPAT"> T  </i>
  <i type="logical" name="LBERRY"> F  </i>
  <i type="int" name="ICORELEVEL">     0</i>
  <i type="logical" name="LDAU"> F  </i>
  <i type="int" name="I_CONSTRAINED_M">     0</i>
  <separator name="electronic exchange-correlation" >
   <i type="string" name="GGA">--</i>
   <i type="int" name="VOSKOWN">     0</i>
   <i type="logical" name="LHFCALC"> F  </i>
   <i type="string" name="PRECFOCK"></i>
   <i type="logical" name="LSYMGRAD"> F  </i>
   <i type="logical" name="LHFONE"> F  </i>
   <i type="logical" name="LRHFCALC"> F  </i>
   <i type="logical" name="LTHOMAS"> F  </i>
   <i type="logical" name="LMODELHF"> F  </i>
   <i name="ENCUT4O">     -1.00000000</i>
   <i type="int" name="EXXOEP">     0</i>
   <i type="int" name="FOURORBIT">     0</i>
   <i name="AEXX">      0.00000000</i>
   <i name="HFALPHA">      0.00000000</i>
   <i name="MCALPHA">      0.00000000</i>
   <i name="ALDAX">      1.00000000</i>
   <i name="AGGAX">      1.00000000</i>
   <i name="ALDAC">      1.00000000</i>
   <i name="AGGAC">      1.00000000</i>
   <i type="int" name="NKREDX">     1</i>
   <i type="int" name="NKREDY">     1</i>
   <i type="int" name="NKREDZ">     1</i>
   <i type="logical" name="SHIFTRED"> F  </i>
   <i type="logical" name="ODDONLY"> F  </i>
   <i type="logical" name="EVENONLY"> F  </i>
   <i type="int" name="LMAXFOCK">     0</i>
   <i type="int" name="NMAXFOCKAE">     0</i>
   <i type="logical" name="LFOCKAEDFT"> F  </i>
   <i name="HFSCREEN">      0.00000000</i>
   <i name="HFSCREENC">      0.00000000</i>
   <i type="int" name="NBANDSGWLOW">     0</i>
  </separator>
  <separator name="vdW DFT" >
   <i type="logical" name="LUSE_VDW"> F  </i>
   <i name="Zab_VDW">     -0.84910000</i>
   <i name="PARAM1">      0.12340000</i>
   <i name="PARAM2">      1.00000000</i>
   <i name="PARAM3">      0.00000000</i>
  </separator>
  <separator name="model GW" >
   <i type="int" name="MODEL_GW">     0</i>
   <i name="MODEL_EPS0">     33.05532754</i>
   <i name="MODEL_ALPHA">      1.00000000</i>
  </separator>
  <separator name="linear response parameters" >
   <i type="logical" name="LEPSILON"> F  </i>
   <i type="logical" name="LRPA"> F  </i>
   <i type="logical" name="LNABLA"> F  </i>
   <i type="logical" name="LVEL"> F  </i>
   <i type="int" name="KINTER">     0</i>
   <i name="CSHIFT">      0.10000000</i>
   <i name="OMEGAMAX">     -1.00000000</i>
   <i name="DEG_THRESHOLD">      0.00200000</i>
   <i name="RTIME">     -0.10000000</i>
   <i name="WPLASMAI">      0.00000000</i>
   <v name="DFIELD">      0.00000000      0.00000000      0.00000000</v>
   <v name="WPLASMA">      0.00000000      0.00000000      0.00000000      0.00000000      0.00000000      0.00000000      0.00000000      0.00000000      0.00000000</v>
  </separator>
  <separator name="orbital magnetization" >
   <i type="logical" name="NUCIND"> F  </i>
   <v name="MAGPOS">      0.00000000      0.00000000      0.00000000</v>
   <i type="logical" name="LNICSALL"> T  </i>
   <i type="logical" name="ORBITALMAG"> F  </i>
   <i type="logical" name="LMAGBLOCH"> F  </i>
   <i type="logical" name="LCHIMAG"> F  </i>
   <i type="logical" name="LGAUGE"> T  </i>
   <i type="int" name="MAGATOM">     0</i>
   <v name="MAGDIPOL">      0.00000000      0.00000000      0.00000000</v>
   <v name="AVECCONST">      0.00000000      0.00000000      0.00000000</v>
  </separator>
  <separator name="response functions" >
   <i type="logical" name="LADDER"> F  </i>
   <i type="logical" name="LRPAFORCE"> F  </i>
   <i type="logical" name="LFXC"> F  </i>
   <i type="logical" name="LHARTREE"> T  </i>
   <i type="int" name="IBSE">     0</i>
   <v type="int" name="KPOINT">    -1     0     0     0</v>
   <i type="logical" name="LTCTE"> F  </i>
   <i type="logical" name="LTETE"> F  </i>
   <i type="logical" name="LTRIPLET"> F  </i>
   <i type="logical" name="LFXCEPS"> F  </i>
   <i type="logical" name="LFXHEG"> F  </i>
   <i type="int" name="NATURALO">     2</i>
   <i type="logical" name="L2ORDER"> F  </i>
   <i type="logical" name="LMP2LT"> F  </i>
   <i type="logical" name="LUSEW"> F  </i>
   <i name="ENCUTGW">     -2.00000000</i>
   <i name="ENCUTGWSOFT">     -2.00000000</i>
   <i name="ENCUTLF">     -1.00000000</i>
   <i type="int" name="LMAXMP2">    -1</i>
   <i name="SCISSOR">      0.00000000</i>
   <i type="int" name="NOMEGA">     0</i>
   <i type="int" name="NOMEGAR">     0</i>
   <i type="int" name="NBANDSGW">    -1</i>
   <i type="int" name="NBANDSO">    -1</i>
   <i type="int" name="NBANDSV">    -1</i>
   <i type="int" name="NELM">     1</i>
   <i type="int" name="NELMHF">     1</i>
   <i type="int" name="DIM">     3</i>
   <i type="int" name="ANTIRES">     0</i>
   <i name="OMEGAMAX">    -30.00000000</i>
   <i name="OMEGAMIN">    -30.00000000</i>
   <i name="OMEGATL">   -200.00000000</i>
   <i type="int" name="OMEGAGRID">   140</i>
   <i name="CSHIFT">     -0.10000000</i>
   <i type="logical" name="SELFENERGY"> F  </i>
   <i type="logical" name="LSPECTRAL"> F  </i>
   <i type="logical" name="LSPECTRALGW"> F  </i>
   <i type="logical" name="LSINGLES"> F  </i>
   <i type="logical" name="LFERMIGW"> F  </i>
   <i type="logical" name="ODDONLYGW"> F  </i>
   <i type="logical" name="EVENONLYGW"> F  </i>
   <i type="int" name="NKREDLFX">     1</i>
   <i type="int" name="NKREDLFY">     1</i>
   <i type="int" name="NKREDLFZ">     1</i>
   <i type="int" name="MAXMEM">  2800</i>
   <i type="int" name="TELESCOPE">     0</i>
   <i type="int" name="TAUPAR">     1</i>
   <i type="int" name="OMEGAPAR">    -1</i>
   <i name="LAMBDA">      1.00000000</i>
  </separator>
  <separator name="External order field" >
   <i name="OFIELD_KAPPA">      0.00000000</i>
   <v name="OFIELD_K">      0.00000000      0.00000000      0.00000000</v>
   <i name="OFIELD_Q6_NEAR">      0.00000000</i>
   <i name="OFIELD_Q6_FAR">      0.00000000</i>
   <i name="OFIELD_A">      0.00000000</i>
  </separator>
 </parameters>
 <atominfo>
  <atoms>      97 </atoms>
  <types>       3 </types>
  <array name="atoms" >
   <dimension dim="1">ion</dimension>
   <field type="string">element</field>
   <field type="int">atomtype</field>
   <set>
    <rc><c>B </c><c>   1</c></rc>
    <rc><c>B </c><c>   1</c></rc>
    <rc><c>B </c><c>   1</c></rc>
    <rc><c>B </c><c>   1</c></rc>
    <rc><c>B </c><c>   1</c></rc>
    <rc><c>B </c><c>   1</c></rc>
    <rc><c>B </c><c>   1</c></rc>
    <rc><c>B </c><c>   1</c></rc>
    <rc><c>B </c><c>   1</c></rc>
    <rc><c>B </c><c>   1</c></rc>
    <rc><c>B </c><c>   1</c></rc>
    <rc><c>B </c><c>   1</c></rc>
    <rc><c>B </c><c>   1</c></rc>
    <rc><c>B </c><c>   1</c></rc>
    <rc><c>B </c><c>   1</c></rc>
    <rc><c>B </c><c>   1</c></rc>
    <rc><c>B </c><c>   1</c></rc>
    <rc><c>B </c><c>   1</c></rc>
    <rc><c>B </c><c>   1</c></rc>
    <rc><c>B </c><c>   1</c></rc>
    <rc><c>B </c><c>   1</c></rc>
    <rc><c>B </c><c>   1</c></rc>
    <rc><c>B </c><c>   1</c></rc>
    <rc><c>B </c><c>   1</c></rc>
    <rc><c>B </c><c>   1</c></rc>
    <rc><c>B </c><c>   1</c></rc>
    <rc><c>B </c><c>   1</c></rc>
    <rc><c>B </c><c>   1</c></rc>
    <rc><c>B </c><c>   1</c></rc>
    <rc><c>B </c><c>   1</c></rc>
    <rc><c>B </c><c>   1</c></rc>
    <rc><c>B </c><c>   1</c></rc>
    <rc><c>B </c><c>   1</c></rc>
    <rc><c>B </c><c>   1</c></rc>
    <rc><c>B </c><c>   1</c></rc>
    <rc><c>B </c><c>   1</c></rc>
    <rc><c>B </c><c>   1</c></rc>
    <rc><c>B </c><c>   1</c></rc>
    <rc><c>B </c><c>   1</c></rc>
    <rc><c>B </c><c>   1</c></rc>
    <rc><c>B </c><c>   1</c></rc>
    <rc><c>B </c><c>   1</c></rc>
    <rc><c>B </c><c>   1</c></rc>
    <rc><c>B </c><c>   1</c></rc>
    <rc><c>B </c><c>   1</c></rc>
    <rc><c>B </c><c>   1</c></rc>
    <rc><c>B </c><c>   1</c></rc>
    <rc><c>B </c><c>   1</c></rc>
    <rc><c>N </c><c>   2</c></rc>
    <rc><c>N </c><c>   2</c></rc>
    <rc><c>N </c><c>   2</c></rc>
    <rc><c>N </c><c>   2</c></rc>
    <rc><c>N </c><c>   2</c></rc>
    <rc><c>N </c><c>   2</c></rc>
    <rc><c>N </c><c>   2</c></rc>
    <rc><c>N </c><c>   2</c></rc>
    <rc><c>N </c><c>   2</c></rc>
    <rc><c>N </c><c>   2</c></rc>
    <rc><c>N </c><c>   2</c></rc>
    <rc><c>N </c><c>   2</c></rc>
    <rc><c>N </c><c>   2</c></rc>
    <rc><c>N </c><c>   2</c></rc>
    <rc><c>N </c><c>   2</c></rc>
    <rc><c>N </c><c>   2</c></rc>
    <rc><c>N </c><c>   2</c></rc>
    <rc><c>N </c><c>   2</c></rc>
    <rc><c>N </c><c>   2</c></rc>
    <rc><c>N </c><c>   2</c></rc>
    <rc><c>N </c><c>   2</c></rc>
    <rc><c>N </c><c>   2</c></rc>
    <rc><c>N </c><c>   2</c></rc>
    <rc><c>N </c><c>   2</c></rc>
    <rc><c>N </c><c>   2</c></rc>
    <rc><c>N </c><c>   2</c></rc>
    <rc><c>N </c><c>   2</c></rc>
    <rc><c>N </c><c>   2</c></rc>
    <rc><c>N </c><c>   2</c></rc>
    <rc><c>N </c><c>   2</c></rc>
    <rc><c>N </c><c>   2</c></rc>
    <rc><c>N </c><c>   2</c></rc>
    <rc><c>N </c><c>   2</c></rc>
    <rc><c>N </c><c>   2</c></rc>
    <rc><c>N </c><c>   2</c></rc>
    <rc><c>N </c><c>   2</c></rc>
    <rc><c>N </c><c>   2</c></rc>
    <rc><c>N </c><c>   2</c></rc>
    <rc><c>N </c><c>   2</c></rc>
    <rc><c>N </c><c>   2</c></rc>
    <rc><c>N </c><c>   2</c></rc>
    <rc><c>N </c><c>   2</c></rc>
    <rc><c>N </c><c>   2</c></rc>
    <rc><c>N </c><c>   2</c></rc>
    <rc><c>N </c><c>   2</c></rc>
    <rc><c>N </c><c>   2</c></rc>
    <rc><c>N </c><c>   2</c></rc>
    <rc><c>N </c><c>   2</c></rc>
    <rc><c>C </c><c>   3</c></rc>
   </set>
  </array>
  <array name="atomtypes" >
   <dimension dim="1">type</dimension>
   <field type="int">atomspertype</field>
   <field type="string">element</field>
   <field>mass</field>
   <field>valence</field>
   <field type="string">pseudopotential</field>
   <set>
    <rc><c>  48</c><c>B </c><c>     10.81100000</c><c>      3.00000000</c><c>  PAW_PBE B 06Sep2000                   </c></rc>
    <rc><c>  48</c><c>N </c><c>     14.00100000</c><c>      5.00000000</c><c>  PAW_PBE N 08Apr2002                   </c></rc>
    <rc><c>   1</c><c>C </c><c>     12.01100000</c><c>      4.00000000</c><c>  PAW_PBE C 08Apr2002                   </c></rc>
   </set>
  </array>
 </atominfo>
 <structure name="initialpos" >
  <crystal>
   <varray name="basis" >
    <v>      17.59966831       0.00000000       0.00000000 </v>
    <v>      -8.79983416      15.24175986       0.00000000 </v>
    <v>       0.00000000       0.00000000      19.92151445 </v>
   </varray>
   <i name="volume">   5343.94461817 </i>
   <varray name="rec_basis" >
    <v>       0.05681925       0.03280461       0.00000000 </v>
    <v>       0.00000000       0.06560922       0.00000000 </v>
    <v>       0.00000000       0.00000000       0.05019699 </v>
   </varray>
  </crystal>
  <varray name="positions" >
   <v>       0.99943010       0.00005992       0.50000000 </v>
   <v>       0.14164706       0.99871895       0.50000000 </v>
   <v>       0.28492260       0.99841663       0.50000000 </v>
   <v>       0.42850047       0.99871895       0.50000000 </v>
   <v>       0.57205839       0.00005992       0.50000000 </v>
   <v>       0.71530655       0.00214292       0.50000000 </v>
   <v>       0.85826494       0.00214292       0.50000000 </v>
   <v>       0.00080792       0.14408264       0.50000000 </v>
   <v>       0.14259355       0.14244783       0.50000000 </v>
   <v>       0.28470221       0.14112972       0.50000000 </v>
   <v>       0.42785608       0.14112972       0.50000000 </v>
   <v>       0.57128286       0.14244783       0.50000000 </v>
   <v>       0.71470329       0.14408264       0.50000000 </v>
   <v>       0.85805263       0.14467669       0.50000000 </v>
   <v>       0.00095476       0.28713011       0.50000000 </v>
   <v>       0.14372552       0.28645370       0.50000000 </v>
   <v>       0.28540977       0.28469374       0.50000000 </v>
   <v>       0.42724431       0.28306005       0.50000000 </v>
   <v>       0.57071254       0.28469374       0.50000000 </v>
   <v>       0.71415674       0.28645370       0.50000000 </v>
   <v>       0.85760392       0.28713011       0.50000000 </v>
   <v>       0.00054479       0.42966101       0.50000000 </v>
   <v>       0.14422690       0.42957551       0.50000000 </v>
   <v>       0.28730213       0.42918005       0.50000000 </v>
   <v>       0.42797654       0.42569726       0.50000000 </v>
   <v>       0.56914930       0.42569726       0.50000000 </v>
   <v>       0.71330650       0.42918005       0.50000000 </v>
   <v>       0.85677719       0.42957551       0.50000000 </v>
   <v>       0.99928255       0.57181462       0.50000000 </v>
   <v>       0.14396064       0.57181462       0.50000000 </v>
   <v>       0.28862787       0.57181625       0.50000000 </v>
   <v>       0.43313209       0.57215564       0.50000000 </v>
   <v>       0.71045212       0.57215564       0.50000000 </v>
   <v>       0.85461695       0.57181625       0.50000000 </v>
   <v>       0.99707234       0.71370518       0.50000000 </v>
   <v>       0.14255519       0.71368182       0.50000000 </v>
   <v>       0.28806142       0.71370518       0.50000000 </v>
   <v>       0.43464191       0.71382540       0.50000000 </v>
   <v>       0.58510826       0.71626937       0.50000000 </v>
   <v>       0.70258968       0.71626937       0.50000000 </v>
   <v>       0.85061206       0.71382540       0.50000000 </v>
   <v>       0.99777175       0.85613493       0.50000000 </v>
   <v>       0.14160898       0.85591288       0.50000000 </v>
   <v>       0.28573247       0.85591288       0.50000000 </v>
   <v>       0.42979175       0.85613493       0.50000000 </v>
   <v>       0.57342541       0.85758690       0.50000000 </v>
   <v>       0.71640633       0.86100790       0.49962381 </v>
   <v>       0.85559006       0.85758690       0.50000000 </v>
   <v>       0.04754270       0.09547788       0.50000000 </v>
   <v>       0.18957833       0.09405657       0.50000000 </v>
   <v>       0.33254182       0.09365506       0.50000000 </v>
   <v>       0.47590681       0.09405657       0.50000000 </v>
   <v>       0.61936376       0.09547788       0.50000000 </v>
   <v>       0.76280004       0.09719274       0.50000000 </v>
   <v>       0.90582126       0.09719274       0.50000000 </v>
   <v>       0.04854983       0.23934281       0.50000000 </v>
   <v>       0.19048138       0.23782962       0.50000000 </v>
   <v>       0.33234878       0.23634667       0.50000000 </v>
   <v>       0.47542646       0.23634667       0.50000000 </v>
   <v>       0.61877681       0.23782962       0.50000000 </v>
   <v>       0.76222155       0.23934281       0.50000000 </v>
   <v>       0.90562797       0.23982737       0.50000000 </v>
   <v>       0.04871288       0.38232824       0.50000000 </v>
   <v>       0.19188940       0.38184213       0.50000000 </v>
   <v>       0.33352206       0.38013969       0.50000000 </v>
   <v>       0.47472270       0.37801683       0.50000000 </v>
   <v>       0.61804620       0.38013969       0.50000000 </v>
   <v>       0.76138130       0.38184213       0.50000000 </v>
   <v>       0.90504393       0.38232824       0.50000000 </v>
   <v>       0.04810654       0.52478452       0.50000000 </v>
   <v>       0.19263929       0.52476864       0.50000000 </v>
   <v>       0.33696521       0.52455433       0.50000000 </v>
   <v>       0.47833704       0.52146721       0.50000000 </v>
   <v>       0.61455874       0.52146721       0.50000000 </v>
   <v>       0.75901769       0.52455433       0.50000000 </v>
   <v>       0.90355792       0.52476864       0.50000000 </v>
   <v>       0.04642473       0.66685228       0.50000000 </v>
   <v>       0.19185612       0.66685228       0.50000000 </v>
   <v>       0.33777931       0.66688794       0.50000000 </v>
   <v>       0.48615700       0.66710760       0.50000000 </v>
   <v>       0.75237918       0.66710760       0.50000000 </v>
   <v>       0.90053720       0.66688794       0.50000000 </v>
   <v>       0.04582562       0.80879365       0.50000000 </v>
   <v>       0.19009580       0.80876303       0.50000000 </v>
   <v>       0.33439660       0.80879365       0.50000000 </v>
   <v>       0.47844872       0.80897069       0.50000000 </v>
   <v>       0.62209487       0.81129474       0.50000000 </v>
   <v>       0.76062845       0.81129474       0.50000000 </v>
   <v>       0.90195054       0.80897069       0.50000000 </v>
   <v>       0.04629157       0.95154386       0.50000000 </v>
   <v>       0.18948291       0.95113037       0.50000000 </v>
   <v>       0.33307603       0.95113037       0.50000000 </v>
   <v>       0.47668087       0.95154386       0.50000000 </v>
   <v>       0.62015751       0.95313740       0.50000000 </v>
   <v>       0.76355772       0.95568687       0.50000000 </v>
   <v>       0.90440847       0.95313740       0.50000000 </v>
   <v>       0.56830873       0.56518888       0.50000000 </v>
  </varray>
 </structure>
 <calculation>
  <scstep>
   <time name="dav">    2.35    2.38</time>
   <time name="total">    2.72    2.82</time>
   <energy>
    <i name="alphaZ">    156.50993408 </i>
    <i name="ewald">  58206.69632038 </i>
    <i name="hartreedc"> -70374.10766368 </i>
    <i name="XCdc">   1302.10912076 </i>
    <i name="pawpsdc">  12033.28670802 </i>
    <i name="pawaedc"> -12049.96799276 </i>
    <i name="eentropy">     -0.00000000 </i>
    <i name="bandstr">   -904.56663766 </i>
    <i name="atom">  16260.93880140 </i>
    <i name="e_fr_energy">   4630.89859054 </i>
    <i name="e_wo_entrp">   4630.89859054 </i>
    <i name="e_0_energy">   4630.89859054 </i>
   </energy>
  </scstep>
  <scstep>
   <time name="dav">    3.01    3.03</time>
   <time name="total">    3.01    3.03</time>
   <energy>
    <i name="e_fr_energy">    216.65930321 </i>
    <i name="e_wo_entrp">    216.65930321 </i>
    <i name="e_0_energy">    216.65930321 </i>
   </energy>
  </scstep>
  <scstep>
   <time name="dav">    2.48    2.50</time>
   <time name="total">    2.48    2.51</time>
   <energy>
    <i name="e_fr_energy">   -867.47731396 </i>
    <i name="e_wo_entrp">   -867.47731396 </i>
    <i name="e_0_energy">   -867.47731396 </i>
   </energy>
  </scstep>
  <scstep>
   <time name="dav">    2.47    2.49</time>
   <time name="total">    2.47    2.49</time>
   <energy>
    <i name="e_fr_energy">   -934.17680942 </i>
    <i name="e_wo_entrp">   -934.17680942 </i>
    <i name="e_0_energy">   -934.17680942 </i>
   </energy>
  </scstep>
  <scstep>
   <time name="dav">    2.50    2.53</time>
   <time name="total">    2.74    2.78</time>
   <energy>
    <i name="e_fr_energy">   -935.77874066 </i>
    <i name="e_wo_entrp">   -935.77874066 </i>
    <i name="e_0_energy">   -935.77874066 </i>
   </energy>
  </scstep>
  <scstep>
   <time name="dav">    2.32    2.33</time>
   <time name="total">    2.92    2.95</time>
   <energy>
    <i name="e_fr_energy">   -858.73454441 </i>
    <i name="e_wo_entrp">   -858.73454441 </i>
    <i name="e_0_energy">   -858.73454441 </i>
   </energy>
  </scstep>
  <scstep>
   <time name="dav">    2.35    2.37</time>
   <time name="total">    2.96    2.99</time>
   <energy>
    <i name="e_fr_energy">   -850.19176158 </i>
    <i name="e_wo_entrp">   -850.19176158 </i>
    <i name="e_0_energy">   -850.19176158 </i>
   </energy>
  </scstep>
  <scstep>
   <time name="dav">    2.29    2.31</time>
   <time name="total">    2.91    2.93</time>
   <energy>
    <i name="e_fr_energy">   -845.92852244 </i>
    <i name="e_wo_entrp">   -845.92852194 </i>
    <i name="e_0_energy">   -845.92852219 </i>
   </energy>
  </scstep>
  <scstep>
   <time name="dav">    2.30    2.32</time>
   <time name="total">    2.91    2.95</time>
   <energy>
    <i name="e_fr_energy">   -845.80299761 </i>
    <i name="e_wo_entrp">   -845.80299761 </i>
    <i name="e_0_energy">   -845.80299761 </i>
   </energy>
  </scstep>
  <scstep>
   <time name="dav">    2.37    2.39</time>
   <time name="total">    3.02    4.55</time>
   <energy>
    <i name="e_fr_energy">   -845.64148919 </i>
    <i name="e_wo_entrp">   -845.64148919 </i>
    <i name="e_0_energy">   -845.64148919 </i>
   </energy>
  </scstep>
  <scstep>
   <time name="dav">    2.23    2.25</time>
   <time name="total">    2.85    4.79</time>
   <energy>
    <i name="e_fr_energy">   -845.58950161 </i>
    <i name="e_wo_entrp">   -845.58950161 </i>
    <i name="e_0_energy">   -845.58950161 </i>
   </energy>
  </scstep>
  <scstep>
   <time name="dav">    2.28    2.30</time>
   <time name="total">    2.89    4.06</time>
   <energy>
    <i name="e_fr_energy">   -845.57769176 </i>
    <i name="e_wo_entrp">   -845.57769176 </i>
    <i name="e_0_energy">   -845.57769176 </i>
   </energy>
  </scstep>
  <scstep>
   <time name="dav">    2.21    2.23</time>
   <time name="total">    2.82    2.86</time>
   <energy>
    <i name="e_fr_energy">   -845.57868520 </i>
    <i name="e_wo_entrp">   -845.57868520 </i>
    <i name="e_0_energy">   -845.57868520 </i>
   </energy>
  </scstep>
  <scstep>
   <time name="dav">    2.26    2.28</time>
   <time name="total">    2.88    2.90</time>
   <energy>
    <i name="e_fr_energy">   -845.58367985 </i>
    <i name="e_wo_entrp">   -845.58367985 </i>
    <i name="e_0_energy">   -845.58367985 </i>
   </energy>
  </scstep>
  <scstep>
   <time name="dav">    2.23    2.25</time>
   <time name="total">    2.85    2.88</time>
   <energy>
    <i name="e_fr_energy">   -845.60522280 </i>
    <i name="e_wo_entrp">   -845.60522280 </i>
    <i name="e_0_energy">   -845.60522280 </i>
   </energy>
  </scstep>
  <scstep>
   <time name="dav">    2.14    2.16</time>
   <time name="total">    2.79    2.82</time>
   <energy>
    <i name="e_fr_energy">   -845.63277236 </i>
    <i name="e_wo_entrp">   -845.63277236 </i>
    <i name="e_0_energy">   -845.63277236 </i>
   </energy>
  </scstep>
  <scstep>
   <time name="dav">    2.25    2.27</time>
   <time name="total">    2.86    2.90</time>
   <energy>
    <i name="e_fr_energy">   -845.64605358 </i>
    <i name="e_wo_entrp">   -845.64605358 </i>
    <i name="e_0_energy">   -845.64605358 </i>
   </energy>
  </scstep>
  <scstep>
   <time name="dav">    2.23    2.25</time>
   <time name="total">    2.84    2.88</time>
   <energy>
    <i name="e_fr_energy">   -845.65160983 </i>
    <i name="e_wo_entrp">   -845.65160983 </i>
    <i name="e_0_energy">   -845.65160983 </i>
   </energy>
  </scstep>
  <scstep>
   <time name="dav">    2.23    2.25</time>
   <time name="total">    2.85    2.88</time>
   <energy>
    <i name="e_fr_energy">   -845.65394655 </i>
    <i name="e_wo_entrp">   -845.65394655 </i>
    <i name="e_0_energy">   -845.65394655 </i>
   </energy>
  </scstep>
  <scstep>
   <time name="dav">    2.26    2.28</time>
   <time name="total">    2.89    2.91</time>
   <energy>
    <i name="e_fr_energy">   -845.65480619 </i>
    <i name="e_wo_entrp">   -845.65480619 </i>
    <i name="e_0_energy">   -845.65480619 </i>
   </energy>
  </scstep>
  <scstep>
   <time name="dav">    2.28    2.30</time>
   <time name="total">    2.89    2.94</time>
   <energy>
    <i name="e_fr_energy">   -845.65509156 </i>
    <i name="e_wo_entrp">   -845.65509156 </i>
    <i name="e_0_energy">   -845.65509156 </i>
   </energy>
  </scstep>
  <scstep>
   <time name="dav">    2.18    2.20</time>
   <time name="total">    2.79    2.83</time>
   <energy>
    <i name="e_fr_energy">   -845.65526952 </i>
    <i name="e_wo_entrp">   -845.65526952 </i>
    <i name="e_0_energy">   -845.65526952 </i>
   </energy>
  </scstep>
  <scstep>
   <time name="dav">    2.23    2.25</time>
   <time name="total">    2.84    2.87</time>
   <energy>
    <i name="e_fr_energy">   -845.65537691 </i>
    <i name="e_wo_entrp">   -845.65537691 </i>
    <i name="e_0_energy">   -845.65537691 </i>
   </energy>
  </scstep>
  <scstep>
   <time name="dav">    2.23    2.25</time>
   <time name="total">    2.85    2.88</time>
   <energy>
    <i name="e_fr_energy">   -845.65543975 </i>
    <i name="e_wo_entrp">   -845.65543975 </i>
    <i name="e_0_energy">   -845.65543975 </i>
   </energy>
  </scstep>
  <scstep>
   <time name="dav">    2.28    2.30</time>
   <time name="total">    2.90    2.94</time>
   <energy>
    <i name="e_fr_energy">   -845.65547617 </i>
    <i name="e_wo_entrp">   -845.65547617 </i>
    <i name="e_0_energy">   -845.65547617 </i>
   </energy>
  </scstep>
  <scstep>
   <time name="dav">    2.21    2.23</time>
   <time name="total">    2.83    2.88</time>
   <energy>
    <i name="e_fr_energy">   -845.65548988 </i>
    <i name="e_wo_entrp">   -845.65548988 </i>
    <i name="e_0_energy">   -845.65548988 </i>
   </energy>
  </scstep>
  <scstep>
   <time name="dav">    2.14    2.16</time>
   <time name="total">    2.77    2.80</time>
   <energy>
    <i name="e_fr_energy">   -845.65549458 </i>
    <i name="e_wo_entrp">   -845.65549458 </i>
    <i name="e_0_energy">   -845.65549458 </i>
   </energy>
  </scstep>
  <scstep>
   <time name="dav">    1.94    1.95</time>
   <time name="total">    2.56    2.59</time>
   <energy>
    <i name="e_fr_energy">   -845.65549608 </i>
    <i name="e_wo_entrp">   -845.65549608 </i>
    <i name="e_0_energy">   -845.65549608 </i>
   </energy>
  </scstep>
  <scstep>
   <time name="dav">    1.96    1.98</time>
   <time name="total">    2.58    2.61</time>
   <energy>
    <i name="e_fr_energy">   -845.65549664 </i>
    <i name="e_wo_entrp">   -845.65549664 </i>
    <i name="e_0_energy">   -845.65549664 </i>
   </energy>
  </scstep>
  <scstep>
   <time name="dav">    1.69    1.70</time>
   <time name="total">    2.32    2.36</time>
   <energy>
    <i name="e_fr_energy">   -845.65549680 </i>
    <i name="e_wo_entrp">   -845.65549680 </i>
    <i name="e_0_energy">   -845.65549680 </i>
   </energy>
  </scstep>
  <scstep>
   <time name="dav">    1.71    1.72</time>
   <time name="total">    2.34    2.37</time>
   <energy>
    <i name="e_fr_energy">   -845.65549685 </i>
    <i name="e_wo_entrp">   -845.65549685 </i>
    <i name="e_0_energy">   -845.65549685 </i>
   </energy>
  </scstep>
  <scstep>
   <time name="dav">    1.72    1.73</time>
   <time name="total">    2.34    2.37</time>
   <energy>
    <i name="e_fr_energy">   -845.65549686 </i>
    <i name="e_wo_entrp">   -845.65549686 </i>
    <i name="e_0_energy">   -845.65549686 </i>
   </energy>
  </scstep>
  <scstep>
   <time name="dav">    1.76    1.78</time>
   <time name="total">    2.14    2.16</time>
   <energy>
    <i name="alphaZ">    156.50993408 </i>
    <i name="ewald">  58206.69632038 </i>
    <i name="hartreedc"> -72314.23708330 </i>
    <i name="XCdc">   1369.72524240 </i>
    <i name="pawpsdc">  44018.98316901 </i>
    <i name="pawaedc"> -44054.32519487 </i>
    <i name="eentropy">     -0.00000000 </i>
    <i name="bandstr">  -4489.94668597 </i>
    <i name="atom">  16260.93880140 </i>
    <i name="e_fr_energy">   -845.65549687 </i>
    <i name="e_wo_entrp">   -845.65549687 </i>
    <i name="e_0_energy">   -845.65549687 </i>
   </energy>
  </scstep>
  <structure>
   <crystal>
    <varray name="basis" >
     <v>      17.59966831       0.00000000       0.00000000 </v>
     <v>      -8.79983416      15.24175986       0.00000000 </v>
     <v>       0.00000000       0.00000000      19.92151445 </v>
    </varray>
    <i name="volume">   5343.94461817 </i>
    <varray name="rec_basis" >
     <v>       0.05681925       0.03280461       0.00000000 </v>
     <v>       0.00000000       0.06560922       0.00000000 </v>
     <v>       0.00000000       0.00000000       0.05019699 </v>
    </varray>
   </crystal>
   <varray name="positions" >
    <v>       0.99943010       0.00005992       0.50000000 </v>
    <v>       0.14164706       0.99871895       0.50000000 </v>
    <v>       0.28492260       0.99841663       0.50000000 </v>
    <v>       0.42850047       0.99871895       0.50000000 </v>
    <v>       0.57205839       0.00005992       0.50000000 </v>
    <v>       0.71530655       0.00214292       0.50000000 </v>
    <v>       0.85826494       0.00214292       0.50000000 </v>
    <v>       0.00080792       0.14408264       0.50000000 </v>
    <v>       0.14259355       0.14244783       0.50000000 </v>
    <v>       0.28470221       0.14112972       0.50000000 </v>
    <v>       0.42785608       0.14112972       0.50000000 </v>
    <v>       0.57128286       0.14244783       0.50000000 </v>
    <v>       0.71470329       0.14408264       0.50000000 </v>
    <v>       0.85805263       0.14467669       0.50000000 </v>
    <v>       0.00095476       0.28713011       0.50000000 </v>
    <v>       0.14372552       0.28645370       0.50000000 </v>
    <v>       0.28540977       0.28469374       0.50000000 </v>
    <v>       0.42724431       0.28306005       0.50000000 </v>
    <v>       0.57071254       0.28469374       0.50000000 </v>
    <v>       0.71415674       0.28645370       0.50000000 </v>
    <v>       0.85760392       0.28713011       0.50000000 </v>
    <v>       0.00054479       0.42966101       0.50000000 </v>
    <v>       0.14422690       0.42957551       0.50000000 </v>
    <v>       0.28730213       0.42918005       0.50000000 </v>
    <v>       0.42797654       0.42569726       0.50000000 </v>
    <v>       0.56914930       0.42569726       0.50000000 </v>
    <v>       0.71330650       0.42918005       0.50000000 </v>
    <v>       0.85677719       0.42957551       0.50000000 </v>
    <v>       0.99928255       0.57181462       0.50000000 </v>
    <v>       0.14396064       0.57181462       0.50000000 </v>
    <v>       0.28862787       0.57181625       0.50000000 </v>
    <v>       0.43313209       0.57215564       0.50000000 </v>
    <v>       0.71045212       0.57215564       0.50000000 </v>
    <v>       0.85461695       0.57181625       0.50000000 </v>
    <v>       0.99707234       0.71370518       0.50000000 </v>
    <v>       0.14255519       0.71368182       0.50000000 </v>
    <v>       0.28806142       0.71370518       0.50000000 </v>
    <v>       0.43464191       0.71382540       0.50000000 </v>
    <v>       0.58510826       0.71626937       0.50000000 </v>
    <v>       0.70258968       0.71626937       0.50000000 </v>
    <v>       0.85061206       0.71382540       0.50000000 </v>
    <v>       0.99777175       0.85613493       0.50000000 </v>
    <v>       0.14160898       0.85591288       0.50000000 </v>
    <v>       0.28573247       0.85591288       0.50000000 </v>
    <v>       0.42979175       0.85613493       0.50000000 </v>
    <v>       0.57342541       0.85758690       0.50000000 </v>
    <v>       0.71640633       0.86100790       0.49962381 </v>
    <v>       0.85559006       0.85758690       0.50000000 </v>
    <v>       0.04754270       0.09547788       0.50000000 </v>
    <v>       0.18957833       0.09405657       0.50000000 </v>
    <v>       0.33254182       0.09365506       0.50000000 </v>
    <v>       0.47590681       0.09405657       0.50000000 </v>
    <v>       0.61936376       0.09547788       0.50000000 </v>
    <v>       0.76280004       0.09719274       0.50000000 </v>
    <v>       0.90582126       0.09719274       0.50000000 </v>
    <v>       0.04854983       0.23934281       0.50000000 </v>
    <v>       0.19048138       0.23782962       0.50000000 </v>
    <v>       0.33234878       0.23634667       0.50000000 </v>
    <v>       0.47542646       0.23634667       0.50000000 </v>
    <v>       0.61877681       0.23782962       0.50000000 </v>
    <v>       0.76222155       0.23934281       0.50000000 </v>
    <v>       0.90562797       0.23982737       0.50000000 </v>
    <v>       0.04871288       0.38232824       0.50000000 </v>
    <v>       0.19188940       0.38184213       0.50000000 </v>
    <v>       0.33352206       0.38013969       0.50000000 </v>
    <v>       0.47472270       0.37801683       0.50000000 </v>
    <v>       0.61804620       0.38013969       0.50000000 </v>
    <v>       0.76138130       0.38184213       0.50000000 </v>
    <v>       0.90504393       0.38232824       0.50000000 </v>
    <v>       0.04810654       0.52478452       0.50000000 </v>
    <v>       0.19263929       0.52476864       0.50000000 </v>
    <v>       0.33696521       0.52455433       0.50000000 </v>
    <v>       0.47833704       0.52146721       0.50000000 </v>
    <v>       0.61455874       0.52146721       0.50000000 </v>
    <v>       0.75901769       0.52455433       0.50000000 </v>
    <v>       0.90355792       0.52476864       0.50000000 </v>
    <v>       0.04642473       0.66685228       0.50000000 </v>
    <v>       0.19185612       0.66685228       0.50000000 </v>
    <v>       0.33777931       0.66688794       0.50000000 </v>
    <v>       0.48615700       0.66710760       0.50000000 </v>
    <v>       0.75237918       0.66710760       0.50000000 </v>
    <v>       0.90053720       0.66688794       0.50000000 </v>
    <v>       0.04582562       0.80879365       0.50000000 </v>
    <v>       0.19009580       0.80876303       0.50000000 </v>
    <v>       0.33439660       0.80879365       0.50000000 </v>
    <v>       0.47844872       0.80897069       0.50000000 </v>
    <v>       0.62209487       0.81129474       0.50000000 </v>
    <v>       0.76062845       0.81129474       0.50000000 </v>
    <v>       0.90195054       0.80897069       0.50000000 </v>
    <v>       0.04629157       0.95154386       0.50000000 </v>
    <v>       0.18948291       0.95113037       0.50000000 </v>
    <v>       0.33307603       0.95113037       0.50000000 </v>
    <v>       0.47668087       0.95154386       0.50000000 </v>
    <v>       0.62015751       0.95313740       0.50000000 </v>
    <v>       0.76355772       0.95568687       0.50000000 </v>
    <v>       0.90440847       0.95313740       0.50000000 </v>
    <v>       0.56830873       0.56518888       0.50000000 </v>
   </varray>
  </structure>
  <varray name="forces" >
   <v>      -0.04025364      -0.02594316      -0.00017838 </v>
   <v>      -0.02110599      -0.00882863       0.00002063 </v>
   <v>       0.00078545      -0.01265805       0.00001459 </v>
   <v>       0.02306922      -0.00985401       0.00002055 </v>
   <v>       0.04356880      -0.02829287      -0.00017852 </v>
   <v>      -0.01284188      -0.07222840       0.00000834 </v>
   <v>       0.00541962      -0.05666150       0.00008337 </v>
   <v>      -0.01111457      -0.02816063       0.00047015 </v>
   <v>      -0.02834748      -0.02590091       0.00002434 </v>
   <v>      -0.00760613      -0.03384281       0.00001200 </v>
   <v>       0.00855203      -0.03421934       0.00001199 </v>
   <v>       0.02911584      -0.02682498       0.00002426 </v>
   <v>       0.00956956      -0.02944521       0.00047156 </v>
   <v>      -0.00024886      -0.04592566      -0.00007817 </v>
   <v>      -0.00971898      -0.03103977       0.00001482 </v>
   <v>       0.00382639      -0.04516364      -0.00000795 </v>
   <v>      -0.03119046      -0.00339323       0.00001713 </v>
   <v>       0.00012470      -0.09488118       0.00000597 </v>
   <v>       0.03142608      -0.00415053       0.00001732 </v>
   <v>      -0.00393070      -0.04610925      -0.00000801 </v>
   <v>       0.00948193      -0.03135466       0.00001480 </v>
   <v>       0.00018915       0.00614185       0.00001225 </v>
   <v>      -0.02599216      -0.00167321       0.00001533 </v>
   <v>       0.05646975      -0.13886820      -0.00002888 </v>
   <v>      -0.11238861      -0.20118257       0.00003217 </v>
   <v>       0.11212200      -0.20174951       0.00003095 </v>
   <v>      -0.05667576      -0.14075619      -0.00002880 </v>
   <v>       0.02630730      -0.00255854       0.00001533 </v>
   <v>       0.01786929       0.02833329       0.00001210 </v>
   <v>      -0.01676409       0.02866386       0.00001216 </v>
   <v>      -0.08608725       0.12815961       0.00001428 </v>
   <v>       0.04865284       0.39704530       0.00057215 </v>
   <v>      -0.05026189       0.39121072       0.00057144 </v>
   <v>       0.08715617       0.12654349       0.00001449 </v>
   <v>      -0.00641990       0.02273106       0.00002400 </v>
   <v>       0.00082106       0.02801673       0.00001222 </v>
   <v>       0.00849229       0.02283149       0.00002387 </v>
   <v>       0.08618744       0.04371306      -0.00014457 </v>
   <v>       1.35107496       1.24700198      -0.00109015 </v>
   <v>      -1.35476465       1.22052789      -0.00107315 </v>
   <v>      -0.08230305       0.04201051      -0.00014299 </v>
   <v>      -0.04338279      -0.00409218       0.00047440 </v>
   <v>      -0.01150746      -0.00345468      -0.00000901 </v>
   <v>       0.01346523      -0.00375445      -0.00000918 </v>
   <v>       0.04688785      -0.00563812       0.00047726 </v>
   <v>       0.15943509       0.05094125       0.00032812 </v>
   <v>      -0.17442516       0.05607873       0.10244697 </v>
   <v>      -0.13187577       0.05547456       0.00042196 </v>
   <v>       0.02896931       0.03114151      -0.00001513 </v>
   <v>       0.01105485       0.02269276      -0.00001691 </v>
   <v>      -0.00040287       0.02734103      -0.00001232 </v>
   <v>      -0.01191681       0.02358452      -0.00001658 </v>
   <v>      -0.02923205       0.03348498      -0.00001518 </v>
   <v>      -0.01428073       0.03361989       0.00213547 </v>
   <v>       0.01799950       0.03457409       0.00213361 </v>
   <v>       0.01800760       0.03718189      -0.00014927 </v>
   <v>      -0.00758734       0.00383636      -0.00002319 </v>
   <v>       0.01603732       0.03622227      -0.00001006 </v>
   <v>      -0.01616223       0.03660329      -0.00001002 </v>
   <v>       0.00740418       0.00482710      -0.00002326 </v>
   <v>      -0.01765801       0.03787888      -0.00014921 </v>
   <v>       0.00006396       0.03455660      -0.00017723 </v>
   <v>       0.01138749       0.02773329      -0.00000056 </v>
   <v>       0.04878081       0.06035981       0.00000563 </v>
   <v>      -0.02090900      -0.19906349      -0.00000595 </v>
   <v>       0.00028777       0.11152022      -0.00000807 </v>
   <v>       0.02132425      -0.19813320      -0.00000525 </v>
   <v>      -0.04903830       0.06135485       0.00000553 </v>
   <v>      -0.01182510       0.02812880      -0.00000072 </v>
   <v>      -0.00059361       0.00996084      -0.00001597 </v>
   <v>       0.02591814      -0.00657198       0.00000210 </v>
   <v>       0.19100506       0.11267583      -0.00018792 </v>
   <v>       1.02448154      -1.56250867       0.00006688 </v>
   <v>      -1.02183972      -1.56184948       0.00006497 </v>
   <v>      -0.19200089       0.11506878      -0.00018681 </v>
   <v>      -0.02720529      -0.00564624       0.00000195 </v>
   <v>       0.00846804      -0.03274541      -0.00000299 </v>
   <v>      -0.01023527      -0.03300250      -0.00000357 </v>
   <v>      -0.05858168      -0.06676755      -0.00014733 </v>
   <v>      -0.26901559       0.00451787       0.00222817 </v>
   <v>       0.26473718       0.01448452       0.00221653 </v>
   <v>       0.05597432      -0.06510795      -0.00014688 </v>
   <v>       0.03428442      -0.01375238      -0.00014904 </v>
   <v>      -0.00089074      -0.01152135      -0.00000274 </v>
   <v>      -0.03663992      -0.01370109      -0.00014956 </v>
   <v>      -0.08246525      -0.01624415       0.00222269 </v>
   <v>      -0.86432362       0.19794697      -0.03676995 </v>
   <v>       0.99876310       0.15509589      -0.03618338 </v>
   <v>       0.07706752      -0.01468605       0.00221034 </v>
   <v>       0.03168333       0.01457456      -0.00003225 </v>
   <v>       0.00931771      -0.00431198      -0.00001051 </v>
   <v>      -0.01093772      -0.00400024      -0.00001035 </v>
   <v>      -0.03405497       0.01605255      -0.00003257 </v>
   <v>      -0.11931860       0.11523397      -0.00174906 </v>
   <v>       0.02713836      -0.11818667      -0.03823492 </v>
   <v>       0.11799861       0.10688367      -0.00175501 </v>
   <v>      -0.00190188      -0.11815652      -0.00064971 </v>
  </varray>
  <varray name="stress" >
   <v>     -10.58033793      -0.01043251       0.00039180 </v>
   <v>      -0.01043251       3.01674707      -0.00012698 </v>
   <v>       0.00039180      -0.00012698      -0.42579903 </v>
  </varray>
  <energy>
   <i name="e_fr_energy">   -845.65549687 </i>
   <i name="e_wo_entrp">   -845.65549687 </i>
   <i name="e_0_energy">     -0.00000000 </i>
  </energy>
  <time name="totalsc">   98.52  104.31</time>
  <eigenvalues>
   <array>
    <dimension dim="1">band</dimension>
    <dimension dim="2">kpoint</dimension>
    <dimension dim="3">spin</dimension>
    <field>eigene</field>
    <field>occ</field>
    <set>
     <set comment="spin 1">
      <set comment="kpoint 1">
       <r>  -22.5427    1.0000 </r>
       <r>  -22.0189    1.0000 </r>
       <r>  -21.7732    1.0000 </r>
       <r>  -21.7438    1.0000 </r>
       <r>  -21.6955    1.0000 </r>
       <r>  -21.6547    1.0000 </r>
       <r>  -21.6145    1.0000 </r>
       <r>  -21.2371    1.0000 </r>
       <r>  -21.0700    1.0000 </r>
       <r>  -21.0023    1.0000 </r>
       <r>  -20.9692    1.0000 </r>
       <r>  -20.9269    1.0000 </r>
       <r>  -20.8766    1.0000 </r>
       <r>  -20.7444    1.0000 </r>
       <r>  -20.7017    1.0000 </r>
       <r>  -20.6616    1.0000 </r>
       <r>  -20.5931    1.0000 </r>
       <r>  -20.5691    1.0000 </r>
       <r>  -20.4309    1.0000 </r>
       <r>  -19.9819    1.0000 </r>
       <r>  -19.9250    1.0000 </r>
       <r>  -19.8041    1.0000 </r>
       <r>  -19.7627    1.0000 </r>
       <r>  -19.7366    1.0000 </r>
       <r>  -19.7358    1.0000 </r>
       <r>  -19.7023    1.0000 </r>
       <r>  -19.6982    1.0000 </r>
       <r>  -19.6442    1.0000 </r>
       <r>  -19.6404    1.0000 </r>
       <r>  -19.6292    1.0000 </r>
       <r>  -19.4927    1.0000 </r>
       <r>  -19.4081    1.0000 </r>
       <r>  -19.3630    1.0000 </r>
       <r>  -19.3550    1.0000 </r>
       <r>  -19.2911    1.0000 </r>
       <r>  -19.2395    1.0000 </r>
       <r>  -19.1082    1.0000 </r>
       <r>  -19.0000    1.0000 </r>
       <r>  -18.9307    1.0000 </r>
       <r>  -18.8754    1.0000 </r>
       <r>  -18.8519    1.0000 </r>
       <r>  -18.8369    1.0000 </r>
       <r>  -18.7666    1.0000 </r>
       <r>  -18.7496    1.0000 </r>
       <r>  -18.7236    1.0000 </r>
       <r>  -18.7145    1.0000 </r>
       <r>  -18.6910    1.0000 </r>
       <r>  -18.4546    1.0000 </r>
       <r>  -14.1422    1.0000 </r>
       <r>  -13.1834    1.0000 </r>
       <r>  -13.1562    1.0000 </r>
       <r>  -13.1096    1.0000 </r>
       <r>  -13.1035    1.0000 </r>
       <r>  -13.0790    1.0000 </r>
       <r>  -13.0153    1.0000 </r>
       <r>  -12.9596    1.0000 </r>
       <r>  -12.9506    1.0000 </r>
       <r>  -12.9340    1.0000 </r>
       <r>  -12.8044    1.0000 </r>
       <r>  -12.7646    1.0000 </r>
       <r>  -12.6035    1.0000 </r>
       <r>  -12.5041    1.0000 </r>
       <r>  -12.4846    1.0000 </r>
       <r>  -12.3783    1.0000 </r>
       <r>  -12.3081    1.0000 </r>
       <r>  -12.2979    1.0000 </r>
       <r>  -12.1761    1.0000 </r>
       <r>  -11.9015    1.0000 </r>
       <r>  -11.8847    1.0000 </r>
       <r>  -11.7670    1.0000 </r>
       <r>  -11.7642    1.0000 </r>
       <r>  -11.7482    1.0000 </r>
       <r>  -11.7403    1.0000 </r>
       <r>  -11.6931    1.0000 </r>
       <r>  -11.6587    1.0000 </r>
       <r>  -11.6323    1.0000 </r>
       <r>  -11.5428    1.0000 </r>
       <r>  -11.4229    1.0000 </r>
       <r>  -11.2015    1.0000 </r>
       <r>  -11.1236    1.0000 </r>
       <r>  -11.0843    1.0000 </r>
       <r>  -11.0586    1.0000 </r>
       <r>  -10.9627    1.0000 </r>
       <r>  -10.9123    1.0000 </r>
       <r>  -10.6853    1.0000 </r>
       <r>  -10.4618    1.0000 </r>
       <r>  -10.4313    1.0000 </r>
       <r>  -10.3495    1.0000 </r>
       <r>  -10.2541    1.0000 </r>
       <r>  -10.2075    1.0000 </r>
       <r>   -9.8904    1.0000 </r>
       <r>   -9.7700    1.0000 </r>
       <r>   -9.7643    1.0000 </r>
       <r>   -9.7245    1.0000 </r>
       <r>   -9.6760    1.0000 </r>
       <r>   -9.5852    1.0000 </r>
       <r>   -9.5426    1.0000 </r>
       <r>   -9.4980    1.0000 </r>
       <r>   -9.4621    1.0000 </r>
       <r>   -9.3516    1.0000 </r>
       <r>   -9.3450    1.0000 </r>
       <r>   -9.2883    1.0000 </r>
       <r>   -9.2615    1.0000 </r>
       <r>   -9.2542    1.0000 </r>
       <r>   -9.2518    1.0000 </r>
       <r>   -9.2374    1.0000 </r>
       <r>   -9.2231    1.0000 </r>
       <r>   -9.2216    1.0000 </r>
       <r>   -9.2072    1.0000 </r>
       <r>   -9.1991    1.0000 </r>
       <r>   -9.1988    1.0000 </r>
       <r>   -9.1973    1.0000 </r>
       <r>   -9.1537    1.0000 </r>
       <r>   -9.1355    1.0000 </r>
       <r>   -9.1122    1.0000 </r>
       <r>   -9.1116    1.0000 </r>
       <r>   -9.1003    1.0000 </r>
       <r>   -9.0454    1.0000 </r>
       <r>   -8.9925    1.0000 </r>
       <r>   -8.8461    1.0000 </r>
       <r>   -8.7951    1.0000 </r>
       <r>   -8.6532    1.0000 </r>
       <r>   -8.5066    1.0000 </r>
       <r>   -8.4810    1.0000 </r>
       <r>   -8.4415    1.0000 </r>
       <r>   -8.3284    1.0000 </r>
       <r>   -8.2231    1.0000 </r>
       <r>   -8.2031    1.0000 </r>
       <r>   -8.1957    1.0000 </r>
       <r>   -8.1708    1.0000 </r>
       <r>   -8.1492    1.0000 </r>
       <r>   -8.1231    1.0000 </r>
       <r>   -8.0392    1.0000 </r>
       <r>   -7.9708    1.0000 </r>
       <r>   -7.9498    1.0000 </r>
       <r>   -7.8721    1.0000 </r>
       <r>   -7.8469    1.0000 </r>
       <r>   -7.8462    1.0000 </r>
       <r>   -7.7997    1.0000 </r>
       <r>   -7.7988    1.0000 </r>
       <r>   -7.7979    1.0000 </r>
       <r>   -7.7366    1.0000 </r>
       <r>   -7.7329    1.0000 </r>
       <r>   -7.7130    1.0000 </r>
       <r>   -7.6770    1.0000 </r>
       <r>   -7.6770    1.0000 </r>
       <r>   -7.6576    1.0000 </r>
       <r>   -7.6386    1.0000 </r>
       <r>   -7.6326    1.0000 </r>
       <r>   -7.4446    1.0000 </r>
       <r>   -7.4376    1.0000 </r>
       <r>   -7.4300    1.0000 </r>
       <r>   -7.3844    1.0000 </r>
       <r>   -7.3641    1.0000 </r>
       <r>   -7.2708    1.0000 </r>
       <r>   -6.8330    1.0000 </r>
       <r>   -6.7572    1.0000 </r>
       <r>   -6.6221    1.0000 </r>
       <r>   -6.6065    1.0000 </r>
       <r>   -6.5429    1.0000 </r>
       <r>   -6.5392    1.0000 </r>
       <r>   -6.4972    1.0000 </r>
       <r>   -6.4887    1.0000 </r>
       <r>   -6.4598    1.0000 </r>
       <r>   -6.4565    1.0000 </r>
       <r>   -6.4401    1.0000 </r>
       <r>   -6.4397    1.0000 </r>
       <r>   -6.4062    1.0000 </r>
       <r>   -6.4038    1.0000 </r>
       <r>   -6.3607    1.0000 </r>
       <r>   -6.3461    1.0000 </r>
       <r>   -6.3186    1.0000 </r>
       <r>   -6.1108    1.0000 </r>
       <r>   -5.9706    1.0000 </r>
       <r>   -5.9236    1.0000 </r>
       <r>   -5.8855    1.0000 </r>
       <r>   -5.8798    1.0000 </r>
       <r>   -5.8611    1.0000 </r>
       <r>   -5.7823    1.0000 </r>
       <r>   -5.7792    1.0000 </r>
       <r>   -5.5275    1.0000 </r>
       <r>   -5.2209    1.0000 </r>
       <r>   -5.2033    1.0000 </r>
       <r>   -5.1962    1.0000 </r>
       <r>   -5.1393    1.0000 </r>
       <r>   -5.1332    1.0000 </r>
       <r>   -5.1041    1.0000 </r>
       <r>   -4.9996    1.0000 </r>
       <r>   -4.9442    1.0000 </r>
       <r>   -4.9172    1.0000 </r>
       <r>   -4.9018    1.0000 </r>
       <r>   -4.8998    1.0000 </r>
       <r>   -4.7360    1.0000 </r>
       <r>   -1.3207    1.0000 </r>
       <r>   -1.2060    0.0000 </r>
       <r>    0.0575    0.0000 </r>
       <r>    0.2051    0.0000 </r>
       <r>    0.2402    0.0000 </r>
       <r>    0.2588    0.0000 </r>
       <r>    0.2609    0.0000 </r>
       <r>    0.3037    0.0000 </r>
       <r>    0.3047    0.0000 </r>
       <r>    0.3775    0.0000 </r>
       <r>    0.3933    0.0000 </r>
       <r>    0.4349    0.0000 </r>
       <r>    0.4793    0.0000 </r>
       <r>    0.5277    0.0000 </r>
       <r>    0.6116    0.0000 </r>
       <r>    0.7465    0.0000 </r>
       <r>    0.7474    0.0000 </r>
       <r>    0.7799    0.0000 </r>
       <r>    0.8060    0.0000 </r>
       <r>    0.8120    0.0000 </r>
       <r>    0.8264    0.0000 </r>
       <r>    0.8383    0.0000 </r>
       <r>    0.8585    0.0000 </r>
       <r>    0.8723    0.0000 </r>
       <r>    0.9804    0.0000 </r>
       <r>    1.0192    0.0000 </r>
       <r>    1.0611    0.0000 </r>
       <r>    1.1190    0.0000 </r>
       <r>    1.4953    0.0000 </r>
       <r>    1.6732    0.0000 </r>
       <r>    1.6973    0.0000 </r>
       <r>    1.7064    0.0000 </r>
       <r>    1.7242    0.0000 </r>
       <r>    1.7398    0.0000 </r>
       <r>    1.7445    0.0000 </r>
       <r>    1.8048    0.0000 </r>
       <r>    1.8074    0.0000 </r>
       <r>    1.8465    0.0000 </r>
       <r>    1.8470    0.0000 </r>
       <r>    1.8795    0.0000 </r>
       <r>    1.8818    0.0000 </r>
       <r>    1.9080    0.0000 </r>
       <r>    1.9107    0.0000 </r>
       <r>    1.9279    0.0000 </r>
       <r>    1.9807    0.0000 </r>
       <r>    2.0286    0.0000 </r>
       <r>    2.1020    0.0000 </r>
       <r>    2.1082    0.0000 </r>
       <r>    2.1277    0.0000 </r>
       <r>    2.1328    0.0000 </r>
       <r>    2.1361    0.0000 </r>
      </set>
     </set>
    </set>
   </array>
  </eigenvalues>
  <separator name="orbital magnetization" >
   <v name="MAGDIPOLOUT">      0.00000000      0.00000000      0.00000000</v>
  </separator>
  <dos>
   <i name="efermi">     -1.25621935 </i>
   <total>
    <array>
     <dimension dim="1">gridpoints</dimension>
     <dimension dim="2">spin</dimension>
     <field>energy</field>
     <field>total</field>
     <field>integrated</field>
     <set>
      <set comment="spin 1">
       <r>   -23.7766     0.0000     0.0000 </r>
       <r>   -23.6861     0.0000     0.0000 </r>
       <r>   -23.5956     0.0000     0.0000 </r>
       <r>   -23.5051     0.0000     0.0000 </r>
       <r>   -23.4147     0.0000     0.0000 </r>
       <r>   -23.3242     0.0000     0.0000 </r>
       <r>   -23.2337     0.0000     0.0000 </r>
       <r>   -23.1432     0.0000     0.0000 </r>
       <r>   -23.0527     0.0000     0.0000 </r>
       <r>   -22.9622     0.0000     0.0000 </r>
       <r>   -22.8717     0.0000     0.0000 </r>
       <r>   -22.7812     0.0000     0.0000 </r>
       <r>   -22.6907     0.0000     0.0000 </r>
       <r>   -22.6003     0.0000     0.0000 </r>
       <r>   -22.5098    22.1022     2.0000 </r>
       <r>   -22.4193     0.0000     2.0000 </r>
       <r>   -22.3288     0.0000     2.0000 </r>
       <r>   -22.2383     0.0000     2.0000 </r>
       <r>   -22.1478     0.0000     2.0000 </r>
       <r>   -22.0573     0.0000     2.0000 </r>
       <r>   -21.9668    22.1022     4.0000 </r>
       <r>   -21.8763     0.0000     4.0000 </r>
       <r>   -21.7859     0.8139     4.0736 </r>
       <r>   -21.6954    54.5936     9.0138 </r>
       <r>   -21.6049    42.2921    13.8270 </r>
       <r>   -21.5144     0.0000    14.0000 </r>
       <r>   -21.4239     0.0000    14.0000 </r>
       <r>   -21.3334     0.0000    14.0000 </r>
       <r>   -21.2429     4.5176    14.4088 </r>
       <r>   -21.1524     0.0000    16.0000 </r>
       <r>   -21.0619    19.2831    17.7449 </r>
       <r>   -20.9715    30.3690    20.7481 </r>
       <r>   -20.8810    28.0501    24.5382 </r>
       <r>   -20.7905     0.0000    26.0000 </r>
       <r>   -20.7000    35.2837    29.1928 </r>
       <r>   -20.6095    22.3240    32.0201 </r>
       <r>   -20.5190    43.9826    36.0000 </r>
       <r>   -20.4285    13.9020    37.2580 </r>
       <r>   -20.3380     0.0000    38.0000 </r>
       <r>   -20.2476     0.0000    38.0000 </r>
       <r>   -20.1571     0.0000    38.0000 </r>
       <r>   -20.0666     0.0000    38.0000 </r>
       <r>   -19.9761    17.5370    39.5869 </r>
       <r>   -19.8856    22.1022    42.0000 </r>
       <r>   -19.7951    19.8514    43.7963 </r>
       <r>   -19.7046    78.4897    51.1024 </r>
       <r>   -19.6141    65.9410    59.9669 </r>
       <r>   -19.5236     0.0001    60.0000 </r>
       <r>   -19.4332    22.1065    62.0004 </r>
       <r>   -19.3427    65.3537    67.9142 </r>
       <r>   -19.2522    22.8998    70.0722 </r>
       <r>   -19.1617    21.3046    72.0000 </r>
       <r>   -19.0712    22.1022    74.0000 </r>
       <r>   -18.9807    22.0317    75.9936 </r>
       <r>   -18.8902    22.5071    78.0366 </r>
       <r>   -18.7997    65.9017    84.0000 </r>
       <r>   -18.7092    83.0202    91.5124 </r>
       <r>   -18.6188    21.9908    94.0000 </r>
       <r>   -18.5283     0.0000    94.0000 </r>
       <r>   -18.4378    21.9115    95.9827 </r>
       <r>   -18.3473     0.0000    96.0000 </r>
       <r>   -18.2568     0.0000    96.0000 </r>
       <r>   -18.1663     0.0000    96.0000 </r>
       <r>   -18.0758     0.0000    96.0000 </r>
       <r>   -17.9853     0.0000    96.0000 </r>
       <r>   -17.8948     0.0000    96.0000 </r>
       <r>   -17.8044     0.0000    96.0000 </r>
       <r>   -17.7139     0.0000    96.0000 </r>
       <r>   -17.6234     0.0000    96.0000 </r>
       <r>   -17.5329     0.0000    96.0000 </r>
       <r>   -17.4424     0.0000    96.0000 </r>
       <r>   -17.3519     0.0000    96.0000 </r>
       <r>   -17.2614     0.0000    96.0000 </r>
       <r>   -17.1709     0.0000    96.0000 </r>
       <r>   -17.0804     0.0000    96.0000 </r>
       <r>   -16.9900     0.0000    96.0000 </r>
       <r>   -16.8995     0.0000    96.0000 </r>
       <r>   -16.8090     0.0000    96.0000 </r>
       <r>   -16.7185     0.0000    96.0000 </r>
       <r>   -16.6280     0.0000    96.0000 </r>
       <r>   -16.5375     0.0000    96.0000 </r>
       <r>   -16.4470     0.0000    96.0000 </r>
       <r>   -16.3565     0.0000    96.0000 </r>
       <r>   -16.2660     0.0000    96.0000 </r>
       <r>   -16.1756     0.0000    96.0000 </r>
       <r>   -16.0851     0.0000    96.0000 </r>
       <r>   -15.9946     0.0000    96.0000 </r>
       <r>   -15.9041     0.0000    96.0000 </r>
       <r>   -15.8136     0.0000    96.0000 </r>
       <r>   -15.7231     0.0000    96.0000 </r>
       <r>   -15.6326     0.0000    96.0000 </r>
       <r>   -15.5421     0.0000    96.0000 </r>
       <r>   -15.4516     0.0000    96.0000 </r>
       <r>   -15.3612     0.0000    96.0000 </r>
       <r>   -15.2707     0.0000    96.0000 </r>
       <r>   -15.1802     0.0000    96.0000 </r>
       <r>   -15.0897     0.0000    96.0000 </r>
       <r>   -14.9992     0.0000    96.0000 </r>
       <r>   -14.9087     0.0000    96.0000 </r>
       <r>   -14.8182     0.0000    96.0000 </r>
       <r>   -14.7277     0.0000    96.0000 </r>
       <r>   -14.6372     0.0000    96.0000 </r>
       <r>   -14.5468     0.0000    96.0000 </r>
       <r>   -14.4563     0.0000    96.0000 </r>
       <r>   -14.3658     0.0000    96.0000 </r>
       <r>   -14.2753     0.0000    96.0000 </r>
       <r>   -14.1848     0.0000    96.0000 </r>
       <r>   -14.0943    22.1022    98.0000 </r>
       <r>   -14.0038     0.0000    98.0000 </r>
       <r>   -13.9133     0.0000    98.0000 </r>
       <r>   -13.8228     0.0000    98.0000 </r>
       <r>   -13.7324     0.0000    98.0000 </r>
       <r>   -13.6419     0.0000    98.0000 </r>
       <r>   -13.5514     0.0000    98.0000 </r>
       <r>   -13.4609     0.0000    98.0000 </r>
       <r>   -13.3704     0.0000    98.0000 </r>
       <r>   -13.2799     0.0000    98.0000 </r>
       <r>   -13.1894     4.3889    98.3971 </r>
       <r>   -13.0989    59.1631   105.3536 </r>
       <r>   -13.0084    40.5036   109.6700 </r>
       <r>   -12.9180    66.0486   115.9767 </r>
       <r>   -12.8275     0.0121   116.0011 </r>
       <r>   -12.7370    44.1912   119.9999 </r>
       <r>   -12.6465     0.0000   120.0000 </r>
       <r>   -12.5560    22.1022   122.0000 </r>
       <r>   -12.4655    44.1283   125.9931 </r>
       <r>   -12.3750    14.9703   127.3546 </r>
       <r>   -12.2845    43.5441   131.9403 </r>
       <r>   -12.1940     0.1224   132.0111 </r>
       <r>   -12.1036    21.9798   134.0000 </r>
       <r>   -12.0131     0.0000   134.0000 </r>
       <r>   -11.9226     0.0318   134.0029 </r>
       <r>   -11.8321    44.1725   138.0000 </r>
       <r>   -11.7416    71.8137   144.4983 </r>
       <r>   -11.6511    41.1270   149.7215 </r>
       <r>   -11.5606    22.1428   152.0116 </r>
       <r>   -11.4701    21.9741   154.0000 </r>
       <r>   -11.3797    22.1022   156.0000 </r>
       <r>   -11.2892     0.0000   156.0000 </r>
       <r>   -11.1987    14.5150   157.3134 </r>
       <r>   -11.1082    21.7886   159.9716 </r>
       <r>   -11.0177    44.1965   164.0000 </r>
       <r>   -10.9272    22.4892   166.0350 </r>
       <r>   -10.8367    21.7152   168.0000 </r>
       <r>   -10.7462     0.0000   168.0000 </r>
       <r>   -10.6557    22.1019   170.0000 </r>
       <r>   -10.5653     0.0000   170.0000 </r>
       <r>   -10.4748     0.7383   170.0668 </r>
       <r>   -10.3843    43.4661   174.0000 </r>
       <r>   -10.2938    22.1022   176.0000 </r>
       <r>   -10.2033    38.1423   179.4515 </r>
       <r>   -10.1128     0.0000   180.0000 </r>
       <r>   -10.0223     0.0000   180.0000 </r>
       <r>    -9.9318     0.0000   180.0000 </r>
       <r>    -9.8413    22.1022   182.0000 </r>
       <r>    -9.7509    43.5026   185.9365 </r>
       <r>    -9.6604    43.9081   189.9734 </r>
       <r>    -9.5699    21.7690   191.9698 </r>
       <r>    -9.4794    44.2692   196.0060 </r>
       <r>    -9.3889    21.9436   198.0000 </r>
       <r>    -9.2984    45.8848   202.1521 </r>
       <r>    -9.2079   147.7519   217.3699 </r>
       <r>    -9.1174    74.4737   228.8705 </r>
       <r>    -9.0269    43.9361   235.9911 </r>
       <r>    -8.9365    22.1022   238.0000 </r>
       <r>    -8.8460    11.2371   239.0168 </r>
       <r>    -8.7555    22.1022   242.0000 </r>
       <r>    -8.6650     1.0651   242.0964 </r>
       <r>    -8.5745    21.0371   244.0000 </r>
       <r>    -8.4840    29.5110   246.6704 </r>
       <r>    -8.3935    22.1022   250.0000 </r>
       <r>    -8.3030    22.0985   251.9997 </r>
       <r>    -8.2125    22.8087   254.0639 </r>
       <r>    -8.1221    78.5237   263.1225 </r>
       <r>    -8.0316    19.0291   265.7219 </r>
       <r>    -7.9411    41.8291   269.7851 </r>
       <r>    -7.8506    34.5974   273.1307 </r>
       <r>    -7.7601    66.3175   282.0010 </r>
       <r>    -7.6696   104.9900   291.5014 </r>
       <r>    -7.5791    65.3155   298.0000 </r>
       <r>    -7.4886     0.0000   298.0000 </r>
       <r>    -7.3981    66.8735   304.0513 </r>
       <r>    -7.3077    43.6374   308.0000 </r>
       <r>    -7.2172    22.1022   310.0000 </r>
       <r>    -7.1267     0.0000   310.0000 </r>
       <r>    -7.0362     0.0000   310.0000 </r>
       <r>    -6.9457     0.0000   310.0000 </r>
       <r>    -6.8552     0.0187   310.0017 </r>
       <r>    -6.7647    25.2775   312.2890 </r>
       <r>    -6.6742     0.0000   314.0000 </r>
       <r>    -6.5837    44.1903   317.9987 </r>
       <r>    -6.4933    65.6650   323.9419 </r>
       <r>    -6.4028   115.8936   336.4871 </r>
       <r>    -6.3123    62.1910   343.6276 </r>
       <r>    -6.2218     0.0000   344.0000 </r>
       <r>    -6.1313     0.0411   344.0037 </r>
       <r>    -6.0408    22.0611   346.0000 </r>
       <r>    -5.9503    22.0585   347.9960 </r>
       <r>    -5.8598    78.8895   355.1388 </r>
       <r>    -5.7693    41.6412   359.7681 </r>
       <r>    -5.6789     0.0000   360.0000 </r>
       <r>    -5.5884     0.0000   360.0000 </r>
       <r>    -5.4979    22.1019   362.0000 </r>
       <r>    -5.4074     0.0000   362.0000 </r>
       <r>    -5.3169     0.0000   362.0000 </r>
       <r>    -5.2264     4.8680   362.4405 </r>
       <r>    -5.1359    66.9685   370.0610 </r>
       <r>    -5.0454    22.1021   374.0000 </r>
       <r>    -4.9549    23.5119   376.1276 </r>
       <r>    -4.8645    86.9990   384.0000 </r>
       <r>    -4.7740     0.0000   384.0000 </r>
       <r>    -4.6835    22.1022   386.0000 </r>
       <r>    -4.5930     0.0000   386.0000 </r>
       <r>    -4.5025     0.0000   386.0000 </r>
       <r>    -4.4120     0.0000   386.0000 </r>
       <r>    -4.3215     0.0000   386.0000 </r>
       <r>    -4.2310     0.0000   386.0000 </r>
       <r>    -4.1405     0.0000   386.0000 </r>
       <r>    -4.0501     0.0000   386.0000 </r>
       <r>    -3.9596     0.0000   386.0000 </r>
       <r>    -3.8691     0.0000   386.0000 </r>
       <r>    -3.7786     0.0000   386.0000 </r>
       <r>    -3.6881     0.0000   386.0000 </r>
       <r>    -3.5976     0.0000   386.0000 </r>
       <r>    -3.5071     0.0000   386.0000 </r>
       <r>    -3.4166     0.0000   386.0000 </r>
       <r>    -3.3262     0.0000   386.0000 </r>
       <r>    -3.2357     0.0000   386.0000 </r>
       <r>    -3.1452     0.0000   386.0000 </r>
       <r>    -3.0547     0.0000   386.0000 </r>
       <r>    -2.9642     0.0000   386.0000 </r>
       <r>    -2.8737     0.0000   386.0000 </r>
       <r>    -2.7832     0.0000   386.0000 </r>
       <r>    -2.6927     0.0000   386.0000 </r>
       <r>    -2.6022     0.0000   386.0000 </r>
       <r>    -2.5118     0.0000   386.0000 </r>
       <r>    -2.4213     0.0000   386.0000 </r>
       <r>    -2.3308     0.0000   386.0000 </r>
       <r>    -2.2403     0.0000   386.0000 </r>
       <r>    -2.1498     0.0000   386.0000 </r>
       <r>    -2.0593     0.0000   386.0000 </r>
       <r>    -1.9688     0.0000   386.0000 </r>
       <r>    -1.8783     0.0000   386.0000 </r>
       <r>    -1.7878     0.0000   386.0000 </r>
       <r>    -1.6974     0.0000   386.0000 </r>
       <r>    -1.6069     0.0000   386.0000 </r>
       <r>    -1.5164     0.0000   386.0000 </r>
       <r>    -1.4259     0.0000   386.0000 </r>
       <r>    -1.3354     0.4182   386.0378 </r>
       <r>    -1.2449    21.6839   388.0000 </r>
       <r>    -1.1544    22.1022   390.0000 </r>
       <r>    -1.0639     0.0000   390.0000 </r>
       <r>    -0.9734     0.0000   390.0000 </r>
       <r>    -0.8830     0.0000   390.0000 </r>
       <r>    -0.7925     0.0000   390.0000 </r>
       <r>    -0.7020     0.0000   390.0000 </r>
       <r>    -0.6115     0.0000   390.0000 </r>
       <r>    -0.5210     0.0000   390.0000 </r>
       <r>    -0.4305     0.0000   390.0000 </r>
       <r>    -0.3400     0.0000   390.0000 </r>
       <r>    -0.2495     0.0000   390.0000 </r>
       <r>    -0.1590     0.0000   390.0000 </r>
       <r>    -0.0686     0.0000   390.0000 </r>
       <r>     0.0219     0.0000   390.0000 </r>
       <r>     0.1124    22.1022   392.0000 </r>
       <r>     0.2029     8.3603   392.7565 </r>
       <r>     0.2934    69.1261   400.2551 </r>
       <r>     0.3839    40.9484   405.8156 </r>
       <r>     0.4744    27.4408   410.4831 </r>
       <r>     0.5649    22.1022   414.0000 </r>
       <r>     0.6554    22.1022   416.0000 </r>
       <r>     0.7458    19.4721   417.7620 </r>
       <r>     0.8363    95.3153   428.6250 </r>
       <r>     0.9268    44.1856   434.0000 </r>
       <r>     1.0173    30.8333   436.7901 </r>
       <r>     1.1078    23.3666   440.1144 </r>
       <r>     1.1983    20.8378   442.0000 </r>
       <r>     1.2888     0.0000   442.0000 </r>
       <r>     1.3793     0.0000   442.0000 </r>
       <r>     1.4698     0.0033   442.0003 </r>
       <r>     1.5602    22.0989   444.0000 </r>
       <r>     1.6507     0.0164   444.0015 </r>
       <r>     1.7412   108.0868   453.7821 </r>
       <r>     1.8317    44.9448   460.0670 </r>
       <r>     1.9222   134.9241   472.2768 </r>
       <r>     2.0127    22.3704   476.0243 </r>
       <r>     2.1032    39.6365   479.6109 </r>
       <r>     2.1937    66.3005   488.0000 </r>
       <r>     2.2842     0.0000   488.0000 </r>
       <r>     2.3746     0.0000   488.0000 </r>
       <r>     2.4651     0.0000   488.0000 </r>
       <r>     2.5556     0.0000   488.0000 </r>
       <r>     2.6461     0.0000   488.0000 </r>
       <r>     2.7366     0.0000   488.0000 </r>
       <r>     2.8271     0.0000   488.0000 </r>
       <r>     2.9176     0.0000   488.0000 </r>
       <r>     3.0081     0.0000   488.0000 </r>
       <r>     3.0986     0.0000   488.0000 </r>
       <r>     3.1890     0.0000   488.0000 </r>
       <r>     3.2795     0.0000   488.0000 </r>
       <r>     3.3700     0.0000   488.0000 </r>
      </set>
     </set>
    </array>
   </total>
  </dos>
 </calculation>
 <structure name="finalpos" >
  <crystal>
   <varray name="basis" >
    <v>      17.59966831       0.00000000       0.00000000 </v>
    <v>      -8.79983416      15.24175986       0.00000000 </v>
    <v>       0.00000000       0.00000000      19.92151445 </v>
   </varray>
   <i name="volume">   5343.94461817 </i>
   <varray name="rec_basis" >
    <v>       0.05681925       0.03280461       0.00000000 </v>
    <v>       0.00000000       0.06560922       0.00000000 </v>
    <v>       0.00000000       0.00000000       0.05019699 </v>
   </varray>
  </crystal>
  <varray name="positions" >
   <v>       0.99943010       0.00005992       0.50000000 </v>
   <v>       0.14164706       0.99871895       0.50000000 </v>
   <v>       0.28492260       0.99841663       0.50000000 </v>
   <v>       0.42850047       0.99871895       0.50000000 </v>
   <v>       0.57205839       0.00005992       0.50000000 </v>
   <v>       0.71530655       0.00214292       0.50000000 </v>
   <v>       0.85826494       0.00214292       0.50000000 </v>
   <v>       0.00080792       0.14408264       0.50000000 </v>
   <v>       0.14259355       0.14244783       0.50000000 </v>
   <v>       0.28470221       0.14112972       0.50000000 </v>
   <v>       0.42785608       0.14112972       0.50000000 </v>
   <v>       0.57128286       0.14244783       0.50000000 </v>
   <v>       0.71470329       0.14408264       0.50000000 </v>
   <v>       0.85805263       0.14467669       0.50000000 </v>
   <v>       0.00095476       0.28713011       0.50000000 </v>
   <v>       0.14372552       0.28645370       0.50000000 </v>
   <v>       0.28540977       0.28469374       0.50000000 </v>
   <v>       0.42724431       0.28306005       0.50000000 </v>
   <v>       0.57071254       0.28469374       0.50000000 </v>
   <v>       0.71415674       0.28645370       0.50000000 </v>
   <v>       0.85760392       0.28713011       0.50000000 </v>
   <v>       0.00054479       0.42966101       0.50000000 </v>
   <v>       0.14422690       0.42957551       0.50000000 </v>
   <v>       0.28730213       0.42918005       0.50000000 </v>
   <v>       0.42797654       0.42569726       0.50000000 </v>
   <v>       0.56914930       0.42569726       0.50000000 </v>
   <v>       0.71330650       0.42918005       0.50000000 </v>
   <v>       0.85677719       0.42957551       0.50000000 </v>
   <v>       0.99928255       0.57181462       0.50000000 </v>
   <v>       0.14396064       0.57181462       0.50000000 </v>
   <v>       0.28862787       0.57181625       0.50000000 </v>
   <v>       0.43313209       0.57215564       0.50000000 </v>
   <v>       0.71045212       0.57215564       0.50000000 </v>
   <v>       0.85461695       0.57181625       0.50000000 </v>
   <v>       0.99707234       0.71370518       0.50000000 </v>
   <v>       0.14255519       0.71368182       0.50000000 </v>
   <v>       0.28806142       0.71370518       0.50000000 </v>
   <v>       0.43464191       0.71382540       0.50000000 </v>
   <v>       0.58510826       0.71626937       0.50000000 </v>
   <v>       0.70258968       0.71626937       0.50000000 </v>
   <v>       0.85061206       0.71382540       0.50000000 </v>
   <v>       0.99777175       0.85613493       0.50000000 </v>
   <v>       0.14160898       0.85591288       0.50000000 </v>
   <v>       0.28573247       0.85591288       0.50000000 </v>
   <v>       0.42979175       0.85613493       0.50000000 </v>
   <v>       0.57342541       0.85758690       0.50000000 </v>
   <v>       0.71640633       0.86100790       0.49962381 </v>
   <v>       0.85559006       0.85758690       0.50000000 </v>
   <v>       0.04754270       0.09547788       0.50000000 </v>
   <v>       0.18957833       0.09405657       0.50000000 </v>
   <v>       0.33254182       0.09365506       0.50000000 </v>
   <v>       0.47590681       0.09405657       0.50000000 </v>
   <v>       0.61936376       0.09547788       0.50000000 </v>
   <v>       0.76280004       0.09719274       0.50000000 </v>
   <v>       0.90582126       0.09719274       0.50000000 </v>
   <v>       0.04854983       0.23934281       0.50000000 </v>
   <v>       0.19048138       0.23782962       0.50000000 </v>
   <v>       0.33234878       0.23634667       0.50000000 </v>
   <v>       0.47542646       0.23634667       0.50000000 </v>
   <v>       0.61877681       0.23782962       0.50000000 </v>
   <v>       0.76222155       0.23934281       0.50000000 </v>
   <v>       0.90562797       0.23982737       0.50000000 </v>
   <v>       0.04871288       0.38232824       0.50000000 </v>
   <v>       0.19188940       0.38184213       0.50000000 </v>
   <v>       0.33352206       0.38013969       0.50000000 </v>
   <v>       0.47472270       0.37801683       0.50000000 </v>
   <v>       0.61804620       0.38013969       0.50000000 </v>
   <v>       0.76138130       0.38184213       0.50000000 </v>
   <v>       0.90504393       0.38232824       0.50000000 </v>
   <v>       0.04810654       0.52478452       0.50000000 </v>
   <v>       0.19263929       0.52476864       0.50000000 </v>
   <v>       0.33696521       0.52455433       0.50000000 </v>
   <v>       0.47833704       0.52146721       0.50000000 </v>
   <v>       0.61455874       0.52146721       0.50000000 </v>
   <v>       0.75901769       0.52455433       0.50000000 </v>
   <v>       0.90355792       0.52476864       0.50000000 </v>
   <v>       0.04642473       0.66685228       0.50000000 </v>
   <v>       0.19185612       0.66685228       0.50000000 </v>
   <v>       0.33777931       0.66688794       0.50000000 </v>
   <v>       0.48615700       0.66710760       0.50000000 </v>
   <v>       0.75237918       0.66710760       0.50000000 </v>
   <v>       0.90053720       0.66688794       0.50000000 </v>
   <v>       0.04582562       0.80879365       0.50000000 </v>
   <v>       0.19009580       0.80876303       0.50000000 </v>
   <v>       0.33439660       0.80879365       0.50000000 </v>
   <v>       0.47844872       0.80897069       0.50000000 </v>
   <v>       0.62209487       0.81129474       0.50000000 </v>
   <v>       0.76062845       0.81129474       0.50000000 </v>
   <v>       0.90195054       0.80897069       0.50000000 </v>
   <v>       0.04629157       0.95154386       0.50000000 </v>
   <v>       0.18948291       0.95113037       0.50000000 </v>
   <v>       0.33307603       0.95113037       0.50000000 </v>
   <v>       0.47668087       0.95154386       0.50000000 </v>
   <v>       0.62015751       0.95313740       0.50000000 </v>
   <v>       0.76355772       0.95568687       0.50000000 </v>
   <v>       0.90440847       0.95313740       0.50000000 </v>
   <v>       0.56830873       0.56518888       0.50000000 </v>
  </varray>
 </structure>
</modeling>
