<?xml version="1.0" encoding="ISO-8859-1"?>
<modeling>
 <generator>
  <i name="program" type="string">vasp </i>
  <i name="version" type="string">5.4.4.18Apr17-6-g9f103f2a35  </i>
  <i name="subversion" type="string">(build Oct 18 2020 22:16:12) gamma-only         parallel </i>
  <i name="platform" type="string">UA-vaughan-2020a </i>
  <i name="date" type="string">2023 03 21 </i>
  <i name="time" type="string">22:38:47 </i>
 </generator>
 <incar>
  <i type="string" name="PREC">accurate</i>
  <i type="int" name="IALGO">    38</i>
  <i type="logical" name="ADDGRID"> T  </i>
  <i type="int" name="NELMIN">     5</i>
  <i type="int" name="IBRION">    -1</i>
  <i name="EDIFF">      0.00000001</i>
  <i name="EDIFFG">     -0.00000001</i>
  <i type="int" name="NSW">     0</i>
  <i type="int" name="ISIF">     2</i>
  <i name="ENCUT">    500.00000000</i>
  <i type="logical" name="LREAL"> F  </i>
  <i type="int" name="ISMEAR">     0</i>
  <i name="SIGMA">      0.01000000</i>
  <i type="logical" name="LWAVE"> F  </i>
  <i type="logical" name="LCHARG"> F  </i>
  <v type="int" name="KPOINT_BSE">    -1     0     0     0</v>
 </incar>
 <structure name="primitive_cell" >
  <crystal>
   <varray name="basis" >
    <v>      17.59966831       0.00000000       0.00000000 </v>
    <v>      -8.79983416      15.24175986       0.00000000 </v>
    <v>       0.00000000       0.00000000      19.92151445 </v>
   </varray>
   <i name="volume">   5343.94461817 </i>
   <varray name="rec_basis" >
    <v>       0.05681925       0.03280461       0.00000000 </v>
    <v>       0.00000000       0.06560922       0.00000000 </v>
    <v>       0.00000000       0.00000000       0.05019699 </v>
   </varray>
  </crystal>
  <varray name="positions" >
   <v>      -0.00056990       0.00005992      -0.50000000 </v>
   <v>       0.04754270       0.09490969      -0.50000000 </v>
   <v>      -0.09559153      -0.04686260      -0.50000000 </v>
   <v>       0.04629157      -0.04845614      -0.50000000 </v>
   <v>      -0.14173506       0.00214292      -0.50000000 </v>
   <v>       0.14259355       0.14244783      -0.50000000 </v>
   <v>       0.14164706      -0.00128105      -0.50000000 </v>
   <v>      -0.00222825      -0.14386507      -0.50000000 </v>
   <v>      -0.14440994      -0.14241310      -0.50000000 </v>
   <v>       0.00080792       0.14408264      -0.50000000 </v>
   <v>       0.18957833       0.09405657      -0.50000000 </v>
   <v>      -0.09417874       0.09719274      -0.50000000 </v>
   <v>      -0.09804946      -0.19102931      -0.50000000 </v>
   <v>      -0.23644228      -0.04431313      -0.50000000 </v>
   <v>      -0.23937155      -0.18870526      -0.50000000 </v>
   <v>       0.19048138       0.23782962      -0.50000000 </v>
   <v>       0.04582562      -0.19120635      -0.50000000 </v>
   <v>       0.18948291      -0.04886963      -0.50000000 </v>
   <v>       0.04854983       0.23934281      -0.50000000 </v>
   <v>      -0.28359367      -0.13861590      -0.50000000 </v>
   <v>       0.28470221       0.14112972      -0.50000000 </v>
   <v>      -0.14194737       0.14467669      -0.50000000 </v>
   <v>      -0.14938794      -0.28617460      -0.50000000 </v>
   <v>       0.14160898      -0.14408712      -0.50000000 </v>
   <v>       0.14372552       0.28645370      -0.50000000 </v>
   <v>      -0.28469345       0.00214292      -0.50000000 </v>
   <v>      -0.00292766      -0.28629482      -0.50000000 </v>
   <v>       0.28540977       0.28469374      -0.50000000 </v>
   <v>       0.00095476       0.28713011      -0.50000000 </v>
   <v>       0.28492260      -0.00158337      -0.50000000 </v>
   <v>      -0.29741032      -0.28373063      -0.50000000 </v>
   <v>      -0.09946280      -0.33311206      -0.50000000 </v>
   <v>       0.33234878       0.23634667      -0.50000000 </v>
   <v>      -0.23719996       0.09719274      -0.50000000 </v>
   <v>       0.33254182       0.09365506      -0.50000000 </v>
   <v>      -0.09437203       0.23982737      -0.50000000 </v>
   <v>      -0.24762082      -0.33289240      -0.50000000 </v>
   <v>      -0.37790513      -0.18870526      -0.50000000 </v>
   <v>       0.19188940       0.38184213      -0.50000000 </v>
   <v>       0.19009580      -0.19123697      -0.50000000 </v>
   <v>      -0.37984249      -0.04686260      -0.50000000 </v>
   <v>       0.04642473      -0.33314772      -0.50000000 </v>
   <v>       0.33352206       0.38013969      -0.50000000 </v>
   <v>       0.04871288       0.38232824      -0.50000000 </v>
   <v>       0.33307603      -0.04886963      -0.50000000 </v>
   <v>      -0.41489174      -0.28373063      -0.50000000 </v>
   <v>      -0.42657459      -0.14241310      -0.50000000 </v>
   <v>       0.42724431       0.28306005      -0.50000000 </v>
   <v>      -0.14538305      -0.42818375      -0.50000000 </v>
   <v>      -0.28529671       0.14408264      -0.50000000 </v>
   <v>      -0.28954788      -0.42784436      -0.50000000 </v>
   <v>       0.42785608       0.14112972      -0.50000000 </v>
   <v>      -0.14239608       0.28713011      -0.50000000 </v>
   <v>       0.14422690       0.42957551      -0.50000000 </v>
   <v>       0.28730213       0.42918005      -0.50000000 </v>
   <v>       0.14255519      -0.28631818      -0.50000000 </v>
   <v>       0.28573247      -0.14408712      -0.50000000 </v>
   <v>      -0.24098231      -0.47544567      -0.50000000 </v>
   <v>       0.47542646       0.23634667      -0.50000000 </v>
   <v>      -0.23777845       0.23934281      -0.50000000 </v>
   <v>       0.42797654       0.42569726      -0.50000000 </v>
   <v>      -0.42794161       0.00005992      -0.50000000 </v>
   <v>      -0.00071745      -0.42818538      -0.50000000 </v>
   <v>       0.00054479       0.42966101      -0.50000000 </v>
   <v>       0.42850047      -0.00128105      -0.50000000 </v>
   <v>      -0.43169127      -0.43481112      -0.50000000 </v>
   <v>       0.47472270       0.37801683      -0.50000000 </v>
   <v>      -0.09644208      -0.47523136      -0.50000000 </v>
   <v>      -0.38063624       0.09547788      -0.50000000 </v>
   <v>       0.47590681       0.09405657      -0.50000000 </v>
   <v>      -0.09495607       0.38232824      -0.50000000 </v>
   <v>      -0.38544126      -0.47853279      -0.50000000 </v>
   <v>       0.48615700      -0.33289240      -0.50000000 </v>
   <v>       0.47844872      -0.19102931      -0.50000000 </v>
   <v>       0.19263929      -0.47523136      -0.50000000 </v>
   <v>       0.33696521      -0.47544567      -0.50000000 </v>
   <v>       0.19185612      -0.33314772      -0.50000000 </v>
   <v>       0.33439660      -0.19120635      -0.50000000 </v>
   <v>       0.43464191      -0.28617460      -0.50000000 </v>
   <v>      -0.28669350       0.42918005      -0.50000000 </v>
   <v>      -0.42928746       0.28469374      -0.50000000 </v>
   <v>      -0.28584326       0.28645370      -0.50000000 </v>
   <v>       0.28862787      -0.42818375      -0.50000000 </v>
   <v>       0.28806142      -0.28629482      -0.50000000 </v>
   <v>       0.47668087      -0.04845614      -0.50000000 </v>
   <v>       0.47833704      -0.47853279      -0.50000000 </v>
   <v>       0.04810654      -0.47521548      -0.50000000 </v>
   <v>       0.43313209      -0.42784436      -0.50000000 </v>
   <v>       0.42979175      -0.14386507      -0.50000000 </v>
   <v>      -0.43085070       0.42569726      -0.50000000 </v>
   <v>      -0.14322281       0.42957551      -0.50000000 </v>
   <v>      -0.42871714       0.14244783      -0.50000000 </v>
   <v>       0.14396064      -0.42818538      -0.50000000 </v>
   <v>      -0.23861870       0.38184213      -0.50000000 </v>
   <v>      -0.38122319       0.23782962      -0.50000000 </v>
   <v>      -0.38195380       0.38013969      -0.50000000 </v>
   <v>       0.33777931      -0.33311206      -0.50000000 </v>
  </varray>
 </structure>
 <varray name="primitive_index" >
  <v type="int" >        1 </v>
  <v type="int" >       49 </v>
  <v type="int" >       96 </v>
  <v type="int" >       90 </v>
  <v type="int" >        7 </v>
  <v type="int" >        9 </v>
  <v type="int" >        2 </v>
  <v type="int" >       42 </v>
  <v type="int" >       48 </v>
  <v type="int" >        8 </v>
  <v type="int" >       50 </v>
  <v type="int" >       55 </v>
  <v type="int" >       89 </v>
  <v type="int" >       95 </v>
  <v type="int" >       88 </v>
  <v type="int" >       57 </v>
  <v type="int" >       83 </v>
  <v type="int" >       91 </v>
  <v type="int" >       56 </v>
  <v type="int" >       47 </v>
  <v type="int" >       10 </v>
  <v type="int" >       14 </v>
  <v type="int" >       41 </v>
  <v type="int" >       43 </v>
  <v type="int" >       16 </v>
  <v type="int" >        6 </v>
  <v type="int" >       35 </v>
  <v type="int" >       17 </v>
  <v type="int" >       15 </v>
  <v type="int" >        3 </v>
  <v type="int" >       40 </v>
  <v type="int" >       82 </v>
  <v type="int" >       58 </v>
  <v type="int" >       54 </v>
  <v type="int" >       51 </v>
  <v type="int" >       62 </v>
  <v type="int" >       81 </v>
  <v type="int" >       87 </v>
  <v type="int" >       64 </v>
  <v type="int" >       84 </v>
  <v type="int" >       94 </v>
  <v type="int" >       77 </v>
  <v type="int" >       65 </v>
  <v type="int" >       63 </v>
  <v type="int" >       92 </v>
  <v type="int" >       39 </v>
  <v type="int" >       46 </v>
  <v type="int" >       18 </v>
  <v type="int" >       34 </v>
  <v type="int" >       13 </v>
  <v type="int" >       33 </v>
  <v type="int" >       11 </v>
  <v type="int" >       21 </v>
  <v type="int" >       23 </v>
  <v type="int" >       24 </v>
  <v type="int" >       36 </v>
  <v type="int" >       44 </v>
  <v type="int" >       75 </v>
  <v type="int" >       59 </v>
  <v type="int" >       61 </v>
  <v type="int" >       25 </v>
  <v type="int" >        5 </v>
  <v type="int" >       29 </v>
  <v type="int" >       22 </v>
  <v type="int" >        4 </v>
  <v type="int" >       97 </v>
  <v type="int" >       66 </v>
  <v type="int" >       76 </v>
  <v type="int" >       53 </v>
  <v type="int" >       52 </v>
  <v type="int" >       69 </v>
  <v type="int" >       74 </v>
  <v type="int" >       80 </v>
  <v type="int" >       86 </v>
  <v type="int" >       71 </v>
  <v type="int" >       72 </v>
  <v type="int" >       78 </v>
  <v type="int" >       85 </v>
  <v type="int" >       38 </v>
  <v type="int" >       27 </v>
  <v type="int" >       19 </v>
  <v type="int" >       20 </v>
  <v type="int" >       31 </v>
  <v type="int" >       37 </v>
  <v type="int" >       93 </v>
  <v type="int" >       73 </v>
  <v type="int" >       70 </v>
  <v type="int" >       32 </v>
  <v type="int" >       45 </v>
  <v type="int" >       26 </v>
  <v type="int" >       28 </v>
  <v type="int" >       12 </v>
  <v type="int" >       30 </v>
  <v type="int" >       68 </v>
  <v type="int" >       60 </v>
  <v type="int" >       67 </v>
  <v type="int" >       79 </v>
 </varray>
 <kpoints>
  <generation param="Gamma">
   <v type="int" name="divisions">       1        1        1 </v>
   <v name="usershift">      0.00000000       0.00000000       0.00000000 </v>
   <v name="genvec1">      1.00000000      -0.00000000       0.00000000 </v>
   <v name="genvec2">      0.00000000       1.00000000       0.00000000 </v>
   <v name="genvec3">      0.00000000       0.00000000       1.00000000 </v>
   <v name="shift">      0.00000000       0.00000000       0.00000000 </v>
  </generation>
  <varray name="kpointlist" >
   <v>       0.00000000       0.00000000       0.00000000 </v>
  </varray>
  <varray name="weights" >
   <v>       1.00000000 </v>
  </varray>
 </kpoints>
 <parameters>
  <separator name="general" >
   <i type="string" name="SYSTEM">unknown system</i>
   <i type="logical" name="LCOMPAT"> F  </i>
  </separator>
  <separator name="electronic" >
   <i type="string" name="PREC">accura</i>
   <i name="ENMAX">    500.00000000</i>
   <i name="ENAUG">    644.87300000</i>
   <i name="EDIFF">      0.00000001</i>
   <i type="int" name="IALGO">    38</i>
   <i type="int" name="IWAVPR">    10</i>
   <i type="int" name="NBANDS">   244</i>
   <i name="NELECT">    388.00000000</i>
   <i type="int" name="TURBO">     0</i>
   <i type="int" name="IRESTART">     0</i>
   <i type="int" name="NREBOOT">     0</i>
   <i type="int" name="NMIN">     0</i>
   <i name="EREF">      0.00000000</i>
   <separator name="electronic smearing" >
    <i type="int" name="ISMEAR">     0</i>
    <i name="SIGMA">      0.01000000</i>
    <i name="KSPACING">      0.50000000</i>
    <i type="logical" name="KGAMMA"> T  </i>
   </separator>
   <separator name="electronic projectors" >
    <i type="logical" name="LREAL"> F  </i>
    <v name="ROPT">      0.00000000      0.00000000      0.00000000</v>
    <i type="int" name="LMAXPAW">  -100</i>
    <i type="int" name="LMAXMIX">     2</i>
    <i type="logical" name="NLSPLINE"> F  </i>
   </separator>
   <separator name="electronic startup" >
    <i type="int" name="ISTART">     0</i>
    <i type="int" name="ICHARG">     2</i>
    <i type="int" name="INIWAV">     1</i>
   </separator>
   <separator name="electronic spin" >
    <i type="int" name="ISPIN">     1</i>
    <i type="logical" name="LNONCOLLINEAR"> F  </i>
    <v name="MAGMOM">      1.00000000      1.00000000      1.00000000      1.00000000      1.00000000      1.00000000      1.00000000      1.00000000      1.00000000      1.00000000      1.00000000      1.00000000      1.00000000      1.00000000      1.00000000      1.00000000      1.00000000      1.00000000      1.00000000      1.00000000
      1.00000000      1.00000000      1.00000000      1.00000000      1.00000000      1.00000000      1.00000000      1.00000000      1.00000000      1.00000000      1.00000000      1.00000000      1.00000000      1.00000000      1.00000000      1.00000000      1.00000000      1.00000000      1.00000000      1.00000000
      1.00000000      1.00000000      1.00000000      1.00000000      1.00000000      1.00000000      1.00000000      1.00000000      1.00000000      1.00000000      1.00000000      1.00000000      1.00000000      1.00000000      1.00000000      1.00000000      1.00000000      1.00000000      1.00000000      1.00000000
      1.00000000      1.00000000      1.00000000      1.00000000      1.00000000      1.00000000      1.00000000      1.00000000      1.00000000      1.00000000      1.00000000      1.00000000      1.00000000      1.00000000      1.00000000      1.00000000      1.00000000      1.00000000      1.00000000      1.00000000
      1.00000000      1.00000000      1.00000000      1.00000000      1.00000000      1.00000000      1.00000000      1.00000000      1.00000000      1.00000000      1.00000000      1.00000000      1.00000000      1.00000000      1.00000000      1.00000000      1.00000000</v>
    <i name="NUPDOWN">     -1.00000000</i>
    <i type="logical" name="LSORBIT"> F  </i>
    <v name="SAXIS">      0.00000000      0.00000000      1.00000000</v>
    <i type="logical" name="LSPIRAL"> F  </i>
    <v name="QSPIRAL">      0.00000000      0.00000000      0.00000000</v>
    <i type="logical" name="LZEROZ"> F  </i>
   </separator>
   <separator name="electronic exchange-correlation" >
    <i type="logical" name="LASPH"> F  </i>
    <i type="logical" name="LMETAGGA"> F  </i>
   </separator>
   <separator name="electronic convergence" >
    <i type="int" name="NELM">    60</i>
    <i type="int" name="NELMDL">    -5</i>
    <i type="int" name="NELMIN">     5</i>
    <i name="ENINI">    500.00000000</i>
    <separator name="electronic convergence detail" >
     <i type="logical" name="LDIAG"> T  </i>
     <i type="logical" name="LSUBROT"> F  </i>
     <i name="WEIMIN">      0.00000000</i>
     <i name="EBREAK">      0.00000000</i>
     <i name="DEPER">      0.30000000</i>
     <i type="int" name="NRMM">     4</i>
     <i name="TIME">      0.40000000</i>
    </separator>
   </separator>
   <separator name="electronic mixer" >
    <i name="AMIX">      0.40000000</i>
    <i name="BMIX">      1.00000000</i>
    <i name="AMIN">      0.10000000</i>
    <i name="AMIX_MAG">      1.60000000</i>
    <i name="BMIX_MAG">      1.00000000</i>
    <separator name="electronic mixer details" >
     <i type="int" name="IMIX">     4</i>
     <i type="logical" name="MIXFIRST"> F  </i>
     <i type="int" name="MAXMIX">   -45</i>
     <i name="WC">    100.00000000</i>
     <i type="int" name="INIMIX">     1</i>
     <i type="int" name="MIXPRE">     1</i>
     <i type="int" name="MREMOVE">     5</i>
    </separator>
   </separator>
   <separator name="electronic dipolcorrection" >
    <i type="logical" name="LDIPOL"> F  </i>
    <i type="logical" name="LMONO"> F  </i>
    <i type="int" name="IDIPOL">     0</i>
    <i name="EPSILON">      1.00000000</i>
    <v name="DIPOL">   -100.00000000   -100.00000000   -100.00000000</v>
    <i name="EFIELD">      0.00000000</i>
   </separator>
  </separator>
  <separator name="grids" >
   <i type="int" name="NGX">   128</i>
   <i type="int" name="NGY">   128</i>
   <i type="int" name="NGZ">   150</i>
   <i type="int" name="NGXF">   256</i>
   <i type="int" name="NGYF">   256</i>
   <i type="int" name="NGZF">   300</i>
   <i type="logical" name="ADDGRID"> T  </i>
  </separator>
  <separator name="ionic" >
   <i type="int" name="NSW">     0</i>
   <i type="int" name="IBRION">    -1</i>
   <i type="int" name="MDALGO">     0</i>
   <i type="int" name="ISIF">     2</i>
   <i name="PSTRESS">      0.00000000</i>
   <i name="EDIFFG">     -0.00000001</i>
   <i type="int" name="NFREE">     0</i>
   <i name="POTIM">      0.50000000</i>
   <i name="SMASS">     -3.00000000</i>
   <i name="SCALEE">      1.00000000</i>
  </separator>
  <separator name="ionic md" >
   <i name="TEBEG">      0.00010000</i>
   <i name="TEEND">      0.00010000</i>
   <i type="int" name="NBLOCK">     1</i>
   <i type="int" name="KBLOCK">     1</i>
   <i type="int" name="NPACO">   256</i>
   <i name="APACO">     16.00000000</i>
  </separator>
  <separator name="symmetry" >
   <i type="int" name="ISYM">     2</i>
   <i name="SYMPREC">      0.00001000</i>
  </separator>
  <separator name="dos" >
   <i type="int" name="LORBIT">     0</i>
   <v name="RWIGS">     -1.00000000     -1.00000000     -1.00000000</v>
   <i type="int" name="NEDOS">   301</i>
   <i name="EMIN">     10.00000000</i>
   <i name="EMAX">    -10.00000000</i>
   <i name="EFERMI">      0.00000000</i>
  </separator>
  <separator name="writing" >
   <i type="int" name="NWRITE">     2</i>
   <i type="logical" name="LWAVE"> F  </i>
   <i type="logical" name="LDOWNSAMPLE"> F  </i>
   <i type="logical" name="LCHARG"> F  </i>
   <i type="logical" name="LPARD"> F  </i>
   <i type="logical" name="LVTOT"> F  </i>
   <i type="logical" name="LVHAR"> F  </i>
   <i type="logical" name="LELF"> F  </i>
   <i type="logical" name="LOPTICS"> F  </i>
   <v name="STM">      0.00000000      0.00000000      0.00000000      0.00000000      0.00000000      0.00000000      0.00000000</v>
  </separator>
  <separator name="performance" >
   <i type="int" name="NPAR">     4</i>
   <i type="int" name="NSIM">     4</i>
   <i type="int" name="NBLK">    -1</i>
   <i type="logical" name="LPLANE"> T  </i>
   <i type="logical" name="LSCALAPACK"> T  </i>
   <i type="logical" name="LSCAAWARE"> F  </i>
   <i type="logical" name="LSCALU"> F  </i>
   <i type="logical" name="LASYNC"> F  </i>
   <i type="logical" name="LORBITALREAL"> F  </i>
  </separator>
  <separator name="miscellaneous" >
   <i type="int" name="IDIOT">     3</i>
   <i type="int" name="ISPECIAL">     0</i>
   <i type="logical" name="LMUSIC"> F  </i>
   <v name="POMASS">     10.81100000     14.00100000     12.01100000</v>
   <v name="DARWINR">      0.00000000      0.00000000      0.00000000</v>
   <v name="DARWINV">      1.00000000      1.00000000      1.00000000</v>
   <i type="logical" name="LCORR"> T  </i>
  </separator>
  <i type="logical" name="GGA_COMPAT"> T  </i>
  <i type="logical" name="LBERRY"> F  </i>
  <i type="int" name="ICORELEVEL">     0</i>
  <i type="logical" name="LDAU"> F  </i>
  <i type="int" name="I_CONSTRAINED_M">     0</i>
  <separator name="electronic exchange-correlation" >
   <i type="string" name="GGA">--</i>
   <i type="int" name="VOSKOWN">     0</i>
   <i type="logical" name="LHFCALC"> F  </i>
   <i type="string" name="PRECFOCK"></i>
   <i type="logical" name="LSYMGRAD"> F  </i>
   <i type="logical" name="LHFONE"> F  </i>
   <i type="logical" name="LRHFCALC"> F  </i>
   <i type="logical" name="LTHOMAS"> F  </i>
   <i type="logical" name="LMODELHF"> F  </i>
   <i name="ENCUT4O">     -1.00000000</i>
   <i type="int" name="EXXOEP">     0</i>
   <i type="int" name="FOURORBIT">     0</i>
   <i name="AEXX">      0.00000000</i>
   <i name="HFALPHA">      0.00000000</i>
   <i name="MCALPHA">      0.00000000</i>
   <i name="ALDAX">      1.00000000</i>
   <i name="AGGAX">      1.00000000</i>
   <i name="ALDAC">      1.00000000</i>
   <i name="AGGAC">      1.00000000</i>
   <i type="int" name="NKREDX">     1</i>
   <i type="int" name="NKREDY">     1</i>
   <i type="int" name="NKREDZ">     1</i>
   <i type="logical" name="SHIFTRED"> F  </i>
   <i type="logical" name="ODDONLY"> F  </i>
   <i type="logical" name="EVENONLY"> F  </i>
   <i type="int" name="LMAXFOCK">     0</i>
   <i type="int" name="NMAXFOCKAE">     0</i>
   <i type="logical" name="LFOCKAEDFT"> F  </i>
   <i name="HFSCREEN">      0.00000000</i>
   <i name="HFSCREENC">      0.00000000</i>
   <i type="int" name="NBANDSGWLOW">     0</i>
  </separator>
  <separator name="vdW DFT" >
   <i type="logical" name="LUSE_VDW"> F  </i>
   <i name="Zab_VDW">     -0.84910000</i>
   <i name="PARAM1">      0.12340000</i>
   <i name="PARAM2">      1.00000000</i>
   <i name="PARAM3">      0.00000000</i>
  </separator>
  <separator name="model GW" >
   <i type="int" name="MODEL_GW">     0</i>
   <i name="MODEL_EPS0">     33.05532754</i>
   <i name="MODEL_ALPHA">      1.00000000</i>
  </separator>
  <separator name="linear response parameters" >
   <i type="logical" name="LEPSILON"> F  </i>
   <i type="logical" name="LRPA"> F  </i>
   <i type="logical" name="LNABLA"> F  </i>
   <i type="logical" name="LVEL"> F  </i>
   <i type="int" name="KINTER">     0</i>
   <i name="CSHIFT">      0.10000000</i>
   <i name="OMEGAMAX">     -1.00000000</i>
   <i name="DEG_THRESHOLD">      0.00200000</i>
   <i name="RTIME">     -0.10000000</i>
   <i name="WPLASMAI">      0.00000000</i>
   <v name="DFIELD">      0.00000000      0.00000000      0.00000000</v>
   <v name="WPLASMA">      0.00000000      0.00000000      0.00000000      0.00000000      0.00000000      0.00000000      0.00000000      0.00000000      0.00000000</v>
  </separator>
  <separator name="orbital magnetization" >
   <i type="logical" name="NUCIND"> F  </i>
   <v name="MAGPOS">      0.00000000      0.00000000      0.00000000</v>
   <i type="logical" name="LNICSALL"> T  </i>
   <i type="logical" name="ORBITALMAG"> F  </i>
   <i type="logical" name="LMAGBLOCH"> F  </i>
   <i type="logical" name="LCHIMAG"> F  </i>
   <i type="logical" name="LGAUGE"> T  </i>
   <i type="int" name="MAGATOM">     0</i>
   <v name="MAGDIPOL">      0.00000000      0.00000000      0.00000000</v>
   <v name="AVECCONST">      0.00000000      0.00000000      0.00000000</v>
  </separator>
  <separator name="response functions" >
   <i type="logical" name="LADDER"> F  </i>
   <i type="logical" name="LRPAFORCE"> F  </i>
   <i type="logical" name="LFXC"> F  </i>
   <i type="logical" name="LHARTREE"> T  </i>
   <i type="int" name="IBSE">     0</i>
   <v type="int" name="KPOINT">    -1     0     0     0</v>
   <i type="logical" name="LTCTE"> F  </i>
   <i type="logical" name="LTETE"> F  </i>
   <i type="logical" name="LTRIPLET"> F  </i>
   <i type="logical" name="LFXCEPS"> F  </i>
   <i type="logical" name="LFXHEG"> F  </i>
   <i type="int" name="NATURALO">     2</i>
   <i type="logical" name="L2ORDER"> F  </i>
   <i type="logical" name="LMP2LT"> F  </i>
   <i type="logical" name="LUSEW"> F  </i>
   <i name="ENCUTGW">     -2.00000000</i>
   <i name="ENCUTGWSOFT">     -2.00000000</i>
   <i name="ENCUTLF">     -1.00000000</i>
   <i type="int" name="LMAXMP2">    -1</i>
   <i name="SCISSOR">      0.00000000</i>
   <i type="int" name="NOMEGA">     0</i>
   <i type="int" name="NOMEGAR">     0</i>
   <i type="int" name="NBANDSGW">    -1</i>
   <i type="int" name="NBANDSO">    -1</i>
   <i type="int" name="NBANDSV">    -1</i>
   <i type="int" name="NELM">     1</i>
   <i type="int" name="NELMHF">     1</i>
   <i type="int" name="DIM">     3</i>
   <i type="int" name="ANTIRES">     0</i>
   <i name="OMEGAMAX">    -30.00000000</i>
   <i name="OMEGAMIN">    -30.00000000</i>
   <i name="OMEGATL">   -200.00000000</i>
   <i type="int" name="OMEGAGRID">   140</i>
   <i name="CSHIFT">     -0.10000000</i>
   <i type="logical" name="SELFENERGY"> F  </i>
   <i type="logical" name="LSPECTRAL"> F  </i>
   <i type="logical" name="LSPECTRALGW"> F  </i>
   <i type="logical" name="LSINGLES"> F  </i>
   <i type="logical" name="LFERMIGW"> F  </i>
   <i type="logical" name="ODDONLYGW"> F  </i>
   <i type="logical" name="EVENONLYGW"> F  </i>
   <i type="int" name="NKREDLFX">     1</i>
   <i type="int" name="NKREDLFY">     1</i>
   <i type="int" name="NKREDLFZ">     1</i>
   <i type="int" name="MAXMEM">  2800</i>
   <i type="int" name="TELESCOPE">     0</i>
   <i type="int" name="TAUPAR">     1</i>
   <i type="int" name="OMEGAPAR">    -1</i>
   <i name="LAMBDA">      1.00000000</i>
  </separator>
  <separator name="External order field" >
   <i name="OFIELD_KAPPA">      0.00000000</i>
   <v name="OFIELD_K">      0.00000000      0.00000000      0.00000000</v>
   <i name="OFIELD_Q6_NEAR">      0.00000000</i>
   <i name="OFIELD_Q6_FAR">      0.00000000</i>
   <i name="OFIELD_A">      0.00000000</i>
  </separator>
 </parameters>
 <atominfo>
  <atoms>      97 </atoms>
  <types>       3 </types>
  <array name="atoms" >
   <dimension dim="1">ion</dimension>
   <field type="string">element</field>
   <field type="int">atomtype</field>
   <set>
    <rc><c>B </c><c>   1</c></rc>
    <rc><c>B </c><c>   1</c></rc>
    <rc><c>B </c><c>   1</c></rc>
    <rc><c>B </c><c>   1</c></rc>
    <rc><c>B </c><c>   1</c></rc>
    <rc><c>B </c><c>   1</c></rc>
    <rc><c>B </c><c>   1</c></rc>
    <rc><c>B </c><c>   1</c></rc>
    <rc><c>B </c><c>   1</c></rc>
    <rc><c>B </c><c>   1</c></rc>
    <rc><c>B </c><c>   1</c></rc>
    <rc><c>B </c><c>   1</c></rc>
    <rc><c>B </c><c>   1</c></rc>
    <rc><c>B </c><c>   1</c></rc>
    <rc><c>B </c><c>   1</c></rc>
    <rc><c>B </c><c>   1</c></rc>
    <rc><c>B </c><c>   1</c></rc>
    <rc><c>B </c><c>   1</c></rc>
    <rc><c>B </c><c>   1</c></rc>
    <rc><c>B </c><c>   1</c></rc>
    <rc><c>B </c><c>   1</c></rc>
    <rc><c>B </c><c>   1</c></rc>
    <rc><c>B </c><c>   1</c></rc>
    <rc><c>B </c><c>   1</c></rc>
    <rc><c>B </c><c>   1</c></rc>
    <rc><c>B </c><c>   1</c></rc>
    <rc><c>B </c><c>   1</c></rc>
    <rc><c>B </c><c>   1</c></rc>
    <rc><c>B </c><c>   1</c></rc>
    <rc><c>B </c><c>   1</c></rc>
    <rc><c>B </c><c>   1</c></rc>
    <rc><c>B </c><c>   1</c></rc>
    <rc><c>B </c><c>   1</c></rc>
    <rc><c>B </c><c>   1</c></rc>
    <rc><c>B </c><c>   1</c></rc>
    <rc><c>B </c><c>   1</c></rc>
    <rc><c>B </c><c>   1</c></rc>
    <rc><c>B </c><c>   1</c></rc>
    <rc><c>B </c><c>   1</c></rc>
    <rc><c>B </c><c>   1</c></rc>
    <rc><c>B </c><c>   1</c></rc>
    <rc><c>B </c><c>   1</c></rc>
    <rc><c>B </c><c>   1</c></rc>
    <rc><c>B </c><c>   1</c></rc>
    <rc><c>B </c><c>   1</c></rc>
    <rc><c>B </c><c>   1</c></rc>
    <rc><c>B </c><c>   1</c></rc>
    <rc><c>B </c><c>   1</c></rc>
    <rc><c>N </c><c>   2</c></rc>
    <rc><c>N </c><c>   2</c></rc>
    <rc><c>N </c><c>   2</c></rc>
    <rc><c>N </c><c>   2</c></rc>
    <rc><c>N </c><c>   2</c></rc>
    <rc><c>N </c><c>   2</c></rc>
    <rc><c>N </c><c>   2</c></rc>
    <rc><c>N </c><c>   2</c></rc>
    <rc><c>N </c><c>   2</c></rc>
    <rc><c>N </c><c>   2</c></rc>
    <rc><c>N </c><c>   2</c></rc>
    <rc><c>N </c><c>   2</c></rc>
    <rc><c>N </c><c>   2</c></rc>
    <rc><c>N </c><c>   2</c></rc>
    <rc><c>N </c><c>   2</c></rc>
    <rc><c>N </c><c>   2</c></rc>
    <rc><c>N </c><c>   2</c></rc>
    <rc><c>N </c><c>   2</c></rc>
    <rc><c>N </c><c>   2</c></rc>
    <rc><c>N </c><c>   2</c></rc>
    <rc><c>N </c><c>   2</c></rc>
    <rc><c>N </c><c>   2</c></rc>
    <rc><c>N </c><c>   2</c></rc>
    <rc><c>N </c><c>   2</c></rc>
    <rc><c>N </c><c>   2</c></rc>
    <rc><c>N </c><c>   2</c></rc>
    <rc><c>N </c><c>   2</c></rc>
    <rc><c>N </c><c>   2</c></rc>
    <rc><c>N </c><c>   2</c></rc>
    <rc><c>N </c><c>   2</c></rc>
    <rc><c>N </c><c>   2</c></rc>
    <rc><c>N </c><c>   2</c></rc>
    <rc><c>N </c><c>   2</c></rc>
    <rc><c>N </c><c>   2</c></rc>
    <rc><c>N </c><c>   2</c></rc>
    <rc><c>N </c><c>   2</c></rc>
    <rc><c>N </c><c>   2</c></rc>
    <rc><c>N </c><c>   2</c></rc>
    <rc><c>N </c><c>   2</c></rc>
    <rc><c>N </c><c>   2</c></rc>
    <rc><c>N </c><c>   2</c></rc>
    <rc><c>N </c><c>   2</c></rc>
    <rc><c>N </c><c>   2</c></rc>
    <rc><c>N </c><c>   2</c></rc>
    <rc><c>N </c><c>   2</c></rc>
    <rc><c>N </c><c>   2</c></rc>
    <rc><c>N </c><c>   2</c></rc>
    <rc><c>N </c><c>   2</c></rc>
    <rc><c>C </c><c>   3</c></rc>
   </set>
  </array>
  <array name="atomtypes" >
   <dimension dim="1">type</dimension>
   <field type="int">atomspertype</field>
   <field type="string">element</field>
   <field>mass</field>
   <field>valence</field>
   <field type="string">pseudopotential</field>
   <set>
    <rc><c>  48</c><c>B </c><c>     10.81100000</c><c>      3.00000000</c><c>  PAW_PBE B 06Sep2000                   </c></rc>
    <rc><c>  48</c><c>N </c><c>     14.00100000</c><c>      5.00000000</c><c>  PAW_PBE N 08Apr2002                   </c></rc>
    <rc><c>   1</c><c>C </c><c>     12.01100000</c><c>      4.00000000</c><c>  PAW_PBE C 08Apr2002                   </c></rc>
   </set>
  </array>
 </atominfo>
 <structure name="initialpos" >
  <crystal>
   <varray name="basis" >
    <v>      17.59966831       0.00000000       0.00000000 </v>
    <v>      -8.79983416      15.24175986       0.00000000 </v>
    <v>       0.00000000       0.00000000      19.92151445 </v>
   </varray>
   <i name="volume">   5343.94461817 </i>
   <varray name="rec_basis" >
    <v>       0.05681925       0.03280461       0.00000000 </v>
    <v>       0.00000000       0.06560922       0.00000000 </v>
    <v>       0.00000000       0.00000000       0.05019699 </v>
   </varray>
  </crystal>
  <varray name="positions" >
   <v>       0.99943010       0.00005992       0.50000000 </v>
   <v>       0.14164706       0.99871895       0.50000000 </v>
   <v>       0.28492260       0.99841663       0.50000000 </v>
   <v>       0.42850047       0.99871895       0.50000000 </v>
   <v>       0.57205839       0.00005992       0.50000000 </v>
   <v>       0.71530655       0.00214292       0.50000000 </v>
   <v>       0.85826494       0.00214292       0.50000000 </v>
   <v>       0.00080792       0.14408264       0.50000000 </v>
   <v>       0.14259355       0.14244783       0.50000000 </v>
   <v>       0.28470221       0.14112972       0.50000000 </v>
   <v>       0.42785608       0.14112972       0.50000000 </v>
   <v>       0.57128286       0.14244783       0.50000000 </v>
   <v>       0.71470329       0.14408264       0.50000000 </v>
   <v>       0.85805263       0.14467669       0.50000000 </v>
   <v>       0.00095476       0.28713011       0.50000000 </v>
   <v>       0.14372552       0.28645370       0.50000000 </v>
   <v>       0.28540977       0.28469374       0.50000000 </v>
   <v>       0.42724431       0.28306005       0.50000000 </v>
   <v>       0.57071254       0.28469374       0.50000000 </v>
   <v>       0.71415674       0.28645370       0.50000000 </v>
   <v>       0.85760392       0.28713011       0.50000000 </v>
   <v>       0.00054479       0.42966101       0.50000000 </v>
   <v>       0.14422690       0.42957551       0.50000000 </v>
   <v>       0.28730213       0.42918005       0.50000000 </v>
   <v>       0.42797654       0.42569726       0.50000000 </v>
   <v>       0.56914930       0.42569726       0.50000000 </v>
   <v>       0.71330650       0.42918005       0.50000000 </v>
   <v>       0.85677719       0.42957551       0.50000000 </v>
   <v>       0.99928255       0.57181462       0.50000000 </v>
   <v>       0.14396064       0.57181462       0.50000000 </v>
   <v>       0.28862787       0.57181625       0.50000000 </v>
   <v>       0.43313209       0.57215564       0.50000000 </v>
   <v>       0.71045212       0.57215564       0.50000000 </v>
   <v>       0.85461695       0.57181625       0.50000000 </v>
   <v>       0.99707234       0.71370518       0.50000000 </v>
   <v>       0.14255519       0.71368182       0.50000000 </v>
   <v>       0.28806142       0.71370518       0.50000000 </v>
   <v>       0.43464191       0.71382540       0.50000000 </v>
   <v>       0.58510826       0.71626937       0.50000000 </v>
   <v>       0.70258968       0.71626937       0.50000000 </v>
   <v>       0.85061206       0.71382540       0.50000000 </v>
   <v>       0.99777175       0.85613493       0.50000000 </v>
   <v>       0.14160898       0.85591288       0.50000000 </v>
   <v>       0.28573247       0.85591288       0.50000000 </v>
   <v>       0.42979175       0.85613493       0.50000000 </v>
   <v>       0.57342541       0.85758690       0.50000000 </v>
   <v>       0.71640633       0.86138410       0.50000000 </v>
   <v>       0.85559006       0.85758690       0.50000000 </v>
   <v>       0.04754270       0.09490969       0.50000000 </v>
   <v>       0.18957833       0.09405657       0.50000000 </v>
   <v>       0.33254182       0.09365506       0.50000000 </v>
   <v>       0.47590681       0.09405657       0.50000000 </v>
   <v>       0.61936376       0.09547788       0.50000000 </v>
   <v>       0.76280004       0.09719274       0.50000000 </v>
   <v>       0.90582126       0.09719274       0.50000000 </v>
   <v>       0.04854983       0.23934281       0.50000000 </v>
   <v>       0.19048138       0.23782962       0.50000000 </v>
   <v>       0.33234878       0.23634667       0.50000000 </v>
   <v>       0.47542646       0.23634667       0.50000000 </v>
   <v>       0.61877681       0.23782962       0.50000000 </v>
   <v>       0.76222155       0.23934281       0.50000000 </v>
   <v>       0.90562797       0.23982737       0.50000000 </v>
   <v>       0.04871288       0.38232824       0.50000000 </v>
   <v>       0.19188940       0.38184213       0.50000000 </v>
   <v>       0.33352206       0.38013969       0.50000000 </v>
   <v>       0.47472270       0.37801683       0.50000000 </v>
   <v>       0.61804620       0.38013969       0.50000000 </v>
   <v>       0.76138130       0.38184213       0.50000000 </v>
   <v>       0.90504393       0.38232824       0.50000000 </v>
   <v>       0.04810654       0.52478452       0.50000000 </v>
   <v>       0.19263929       0.52476864       0.50000000 </v>
   <v>       0.33696521       0.52455433       0.50000000 </v>
   <v>       0.47833704       0.52146721       0.50000000 </v>
   <v>       0.61455874       0.52146721       0.50000000 </v>
   <v>       0.75901769       0.52455433       0.50000000 </v>
   <v>       0.90355792       0.52476864       0.50000000 </v>
   <v>       0.04642473       0.66685228       0.50000000 </v>
   <v>       0.19185612       0.66685228       0.50000000 </v>
   <v>       0.33777931       0.66688794       0.50000000 </v>
   <v>       0.48615700       0.66710760       0.50000000 </v>
   <v>       0.75237918       0.66710760       0.50000000 </v>
   <v>       0.90053720       0.66688794       0.50000000 </v>
   <v>       0.04582562       0.80879365       0.50000000 </v>
   <v>       0.19009580       0.80876303       0.50000000 </v>
   <v>       0.33439660       0.80879365       0.50000000 </v>
   <v>       0.47844872       0.80897069       0.50000000 </v>
   <v>       0.62209487       0.81129474       0.50000000 </v>
   <v>       0.76062845       0.81129474       0.50000000 </v>
   <v>       0.90195054       0.80897069       0.50000000 </v>
   <v>       0.04629157       0.95154386       0.50000000 </v>
   <v>       0.18948291       0.95113037       0.50000000 </v>
   <v>       0.33307603       0.95113037       0.50000000 </v>
   <v>       0.47668087       0.95154386       0.50000000 </v>
   <v>       0.62015751       0.95313740       0.50000000 </v>
   <v>       0.76355772       0.95568687       0.50000000 </v>
   <v>       0.90440847       0.95313740       0.50000000 </v>
   <v>       0.56830873       0.56518888       0.50000000 </v>
  </varray>
 </structure>
 <calculation>
  <scstep>
   <time name="dav">    2.36    2.38</time>
   <time name="total">    2.73    2.83</time>
   <energy>
    <i name="alphaZ">    156.50993408 </i>
    <i name="ewald">  58206.76706713 </i>
    <i name="hartreedc"> -70374.18818430 </i>
    <i name="XCdc">   1302.10879238 </i>
    <i name="pawpsdc">  12033.28670802 </i>
    <i name="pawaedc"> -12049.96799276 </i>
    <i name="eentropy">     -0.00000000 </i>
    <i name="bandstr">   -904.56437443 </i>
    <i name="atom">  16260.93880140 </i>
    <i name="e_fr_energy">   4630.89075152 </i>
    <i name="e_wo_entrp">   4630.89075152 </i>
    <i name="e_0_energy">   4630.89075152 </i>
   </energy>
  </scstep>
  <scstep>
   <time name="dav">    3.01    3.05</time>
   <time name="total">    3.01    3.05</time>
   <energy>
    <i name="e_fr_energy">    216.68212850 </i>
    <i name="e_wo_entrp">    216.68212850 </i>
    <i name="e_0_energy">    216.68212850 </i>
   </energy>
  </scstep>
  <scstep>
   <time name="dav">    2.47    2.51</time>
   <time name="total">    2.47    2.51</time>
   <energy>
    <i name="e_fr_energy">   -867.46391996 </i>
    <i name="e_wo_entrp">   -867.46391996 </i>
    <i name="e_0_energy">   -867.46391996 </i>
   </energy>
  </scstep>
  <scstep>
   <time name="dav">    2.48    2.51</time>
   <time name="total">    2.48    2.51</time>
   <energy>
    <i name="e_fr_energy">   -934.19519420 </i>
    <i name="e_wo_entrp">   -934.19519420 </i>
    <i name="e_0_energy">   -934.19519420 </i>
   </energy>
  </scstep>
  <scstep>
   <time name="dav">    2.50    2.53</time>
   <time name="total">    2.95    2.99</time>
   <energy>
    <i name="e_fr_energy">   -935.77526421 </i>
    <i name="e_wo_entrp">   -935.77526421 </i>
    <i name="e_0_energy">   -935.77526421 </i>
   </energy>
  </scstep>
  <scstep>
   <time name="dav">    2.33    2.35</time>
   <time name="total">    3.13    3.16</time>
   <energy>
    <i name="e_fr_energy">   -858.73079886 </i>
    <i name="e_wo_entrp">   -858.73079886 </i>
    <i name="e_0_energy">   -858.73079886 </i>
   </energy>
  </scstep>
  <scstep>
   <time name="dav">    2.35    2.37</time>
   <time name="total">    3.16    3.19</time>
   <energy>
    <i name="e_fr_energy">   -850.19253842 </i>
    <i name="e_wo_entrp">   -850.19253842 </i>
    <i name="e_0_energy">   -850.19253842 </i>
   </energy>
  </scstep>
  <scstep>
   <time name="dav">    2.28    2.30</time>
   <time name="total">    3.08    3.11</time>
   <energy>
    <i name="e_fr_energy">   -845.92600424 </i>
    <i name="e_wo_entrp">   -845.92600321 </i>
    <i name="e_0_energy">   -845.92600373 </i>
   </energy>
  </scstep>
  <scstep>
   <time name="dav">    2.32    2.34</time>
   <time name="total">    3.12    3.15</time>
   <energy>
    <i name="e_fr_energy">   -845.80036879 </i>
    <i name="e_wo_entrp">   -845.80036879 </i>
    <i name="e_0_energy">   -845.80036879 </i>
   </energy>
  </scstep>
  <scstep>
   <time name="dav">    2.38    2.40</time>
   <time name="total">    3.19    3.23</time>
   <energy>
    <i name="e_fr_energy">   -845.63892716 </i>
    <i name="e_wo_entrp">   -845.63892716 </i>
    <i name="e_0_energy">   -845.63892716 </i>
   </energy>
  </scstep>
  <scstep>
   <time name="dav">    2.23    2.25</time>
   <time name="total">    3.04    3.07</time>
   <energy>
    <i name="e_fr_energy">   -845.58642827 </i>
    <i name="e_wo_entrp">   -845.58642827 </i>
    <i name="e_0_energy">   -845.58642827 </i>
   </energy>
  </scstep>
  <scstep>
   <time name="dav">    2.26    2.29</time>
   <time name="total">    3.07    3.11</time>
   <energy>
    <i name="e_fr_energy">   -845.57360674 </i>
    <i name="e_wo_entrp">   -845.57360674 </i>
    <i name="e_0_energy">   -845.57360674 </i>
   </energy>
  </scstep>
  <scstep>
   <time name="dav">    2.23    2.25</time>
   <time name="total">    3.04    3.08</time>
   <energy>
    <i name="e_fr_energy">   -845.58412513 </i>
    <i name="e_wo_entrp">   -845.58412513 </i>
    <i name="e_0_energy">   -845.58412513 </i>
   </energy>
  </scstep>
  <scstep>
   <time name="dav">    2.23    2.25</time>
   <time name="total">    3.04    3.07</time>
   <energy>
    <i name="e_fr_energy">   -845.59375967 </i>
    <i name="e_wo_entrp">   -845.59375967 </i>
    <i name="e_0_energy">   -845.59375967 </i>
   </energy>
  </scstep>
  <scstep>
   <time name="dav">    2.19    2.22</time>
   <time name="total">    2.99    3.04</time>
   <energy>
    <i name="e_fr_energy">   -845.62494280 </i>
    <i name="e_wo_entrp">   -845.62494280 </i>
    <i name="e_0_energy">   -845.62494280 </i>
   </energy>
  </scstep>
  <scstep>
   <time name="dav">    2.21    2.23</time>
   <time name="total">    3.01    3.05</time>
   <energy>
    <i name="e_fr_energy">   -845.64137583 </i>
    <i name="e_wo_entrp">   -845.64137583 </i>
    <i name="e_0_energy">   -845.64137583 </i>
   </energy>
  </scstep>
  <scstep>
   <time name="dav">    2.26    2.28</time>
   <time name="total">    3.07    3.10</time>
   <energy>
    <i name="e_fr_energy">   -845.64773824 </i>
    <i name="e_wo_entrp">   -845.64773824 </i>
    <i name="e_0_energy">   -845.64773824 </i>
   </energy>
  </scstep>
  <scstep>
   <time name="dav">    2.21    2.23</time>
   <time name="total">    3.03    3.07</time>
   <energy>
    <i name="e_fr_energy">   -845.65087991 </i>
    <i name="e_wo_entrp">   -845.65087991 </i>
    <i name="e_0_energy">   -845.65087991 </i>
   </energy>
  </scstep>
  <scstep>
   <time name="dav">    2.31    2.33</time>
   <time name="total">    3.12    3.16</time>
   <energy>
    <i name="e_fr_energy">   -845.65189965 </i>
    <i name="e_wo_entrp">   -845.65189965 </i>
    <i name="e_0_energy">   -845.65189965 </i>
   </energy>
  </scstep>
  <scstep>
   <time name="dav">    2.23    2.25</time>
   <time name="total">    3.05    3.08</time>
   <energy>
    <i name="e_fr_energy">   -845.65232203 </i>
    <i name="e_wo_entrp">   -845.65232203 </i>
    <i name="e_0_energy">   -845.65232203 </i>
   </energy>
  </scstep>
  <scstep>
   <time name="dav">    2.24    2.26</time>
   <time name="total">    3.05    3.09</time>
   <energy>
    <i name="e_fr_energy">   -845.65251767 </i>
    <i name="e_wo_entrp">   -845.65251767 </i>
    <i name="e_0_energy">   -845.65251767 </i>
   </energy>
  </scstep>
  <scstep>
   <time name="dav">    2.18    2.20</time>
   <time name="total">    3.00    3.03</time>
   <energy>
    <i name="e_fr_energy">   -845.65263520 </i>
    <i name="e_wo_entrp">   -845.65263520 </i>
    <i name="e_0_energy">   -845.65263520 </i>
   </energy>
  </scstep>
  <scstep>
   <time name="dav">    2.25    2.27</time>
   <time name="total">    3.06    3.09</time>
   <energy>
    <i name="e_fr_energy">   -845.65270839 </i>
    <i name="e_wo_entrp">   -845.65270839 </i>
    <i name="e_0_energy">   -845.65270839 </i>
   </energy>
  </scstep>
  <scstep>
   <time name="dav">    2.28    2.30</time>
   <time name="total">    3.09    3.13</time>
   <energy>
    <i name="e_fr_energy">   -845.65274763 </i>
    <i name="e_wo_entrp">   -845.65274763 </i>
    <i name="e_0_energy">   -845.65274763 </i>
   </energy>
  </scstep>
  <scstep>
   <time name="dav">    2.26    2.29</time>
   <time name="total">    3.07    3.11</time>
   <energy>
    <i name="e_fr_energy">   -845.65276506 </i>
    <i name="e_wo_entrp">   -845.65276506 </i>
    <i name="e_0_energy">   -845.65276506 </i>
   </energy>
  </scstep>
  <scstep>
   <time name="dav">    2.21    2.23</time>
   <time name="total">    3.02    3.06</time>
   <energy>
    <i name="e_fr_energy">   -845.65278156 </i>
    <i name="e_wo_entrp">   -845.65278156 </i>
    <i name="e_0_energy">   -845.65278156 </i>
   </energy>
  </scstep>
  <scstep>
   <time name="dav">    2.21    2.23</time>
   <time name="total">    3.02    3.06</time>
   <energy>
    <i name="e_fr_energy">   -845.65278469 </i>
    <i name="e_wo_entrp">   -845.65278469 </i>
    <i name="e_0_energy">   -845.65278469 </i>
   </energy>
  </scstep>
  <scstep>
   <time name="dav">    1.92    1.94</time>
   <time name="total">    2.73    2.77</time>
   <energy>
    <i name="e_fr_energy">   -845.65278599 </i>
    <i name="e_wo_entrp">   -845.65278599 </i>
    <i name="e_0_energy">   -845.65278599 </i>
   </energy>
  </scstep>
  <scstep>
   <time name="dav">    1.82    1.83</time>
   <time name="total">    2.64    2.67</time>
   <energy>
    <i name="e_fr_energy">   -845.65278631 </i>
    <i name="e_wo_entrp">   -845.65278631 </i>
    <i name="e_0_energy">   -845.65278631 </i>
   </energy>
  </scstep>
  <scstep>
   <time name="dav">    1.69    1.71</time>
   <time name="total">    2.51    2.54</time>
   <energy>
    <i name="e_fr_energy">   -845.65278643 </i>
    <i name="e_wo_entrp">   -845.65278643 </i>
    <i name="e_0_energy">   -845.65278643 </i>
   </energy>
  </scstep>
  <scstep>
   <time name="dav">    1.67    1.68</time>
   <time name="total">    2.49    2.52</time>
   <energy>
    <i name="e_fr_energy">   -845.65278649 </i>
    <i name="e_wo_entrp">   -845.65278649 </i>
    <i name="e_0_energy">   -845.65278649 </i>
   </energy>
  </scstep>
  <scstep>
   <time name="dav">    1.73    1.74</time>
   <time name="total">    2.55    2.58</time>
   <energy>
    <i name="e_fr_energy">   -845.65278651 </i>
    <i name="e_wo_entrp">   -845.65278651 </i>
    <i name="e_0_energy">   -845.65278651 </i>
   </energy>
  </scstep>
  <scstep>
   <time name="dav">    1.80    1.82</time>
   <time name="total">    2.17    2.20</time>
   <energy>
    <i name="alphaZ">    156.50993408 </i>
    <i name="ewald">  58206.76706713 </i>
    <i name="hartreedc"> -72314.26522478 </i>
    <i name="XCdc">   1369.72394084 </i>
    <i name="pawpsdc">  44018.82218764 </i>
    <i name="pawaedc"> -44054.16405347 </i>
    <i name="eentropy">     -0.00000000 </i>
    <i name="bandstr">  -4489.98543936 </i>
    <i name="atom">  16260.93880140 </i>
    <i name="e_fr_energy">   -845.65278652 </i>
    <i name="e_wo_entrp">   -845.65278652 </i>
    <i name="e_0_energy">   -845.65278652 </i>
   </energy>
  </scstep>
  <structure>
   <crystal>
    <varray name="basis" >
     <v>      17.59966831       0.00000000       0.00000000 </v>
     <v>      -8.79983416      15.24175986       0.00000000 </v>
     <v>       0.00000000       0.00000000      19.92151445 </v>
    </varray>
    <i name="volume">   5343.94461817 </i>
    <varray name="rec_basis" >
     <v>       0.05681925       0.03280461       0.00000000 </v>
     <v>       0.00000000       0.06560922       0.00000000 </v>
     <v>       0.00000000       0.00000000       0.05019699 </v>
    </varray>
   </crystal>
   <varray name="positions" >
    <v>       0.99943010       0.00005992       0.50000000 </v>
    <v>       0.14164706       0.99871895       0.50000000 </v>
    <v>       0.28492260       0.99841663       0.50000000 </v>
    <v>       0.42850047       0.99871895       0.50000000 </v>
    <v>       0.57205839       0.00005992       0.50000000 </v>
    <v>       0.71530655       0.00214292       0.50000000 </v>
    <v>       0.85826494       0.00214292       0.50000000 </v>
    <v>       0.00080792       0.14408264       0.50000000 </v>
    <v>       0.14259355       0.14244783       0.50000000 </v>
    <v>       0.28470221       0.14112972       0.50000000 </v>
    <v>       0.42785608       0.14112972       0.50000000 </v>
    <v>       0.57128286       0.14244783       0.50000000 </v>
    <v>       0.71470329       0.14408264       0.50000000 </v>
    <v>       0.85805263       0.14467669       0.50000000 </v>
    <v>       0.00095476       0.28713011       0.50000000 </v>
    <v>       0.14372552       0.28645370       0.50000000 </v>
    <v>       0.28540977       0.28469374       0.50000000 </v>
    <v>       0.42724431       0.28306005       0.50000000 </v>
    <v>       0.57071254       0.28469374       0.50000000 </v>
    <v>       0.71415674       0.28645370       0.50000000 </v>
    <v>       0.85760392       0.28713011       0.50000000 </v>
    <v>       0.00054479       0.42966101       0.50000000 </v>
    <v>       0.14422690       0.42957551       0.50000000 </v>
    <v>       0.28730213       0.42918005       0.50000000 </v>
    <v>       0.42797654       0.42569726       0.50000000 </v>
    <v>       0.56914930       0.42569726       0.50000000 </v>
    <v>       0.71330650       0.42918005       0.50000000 </v>
    <v>       0.85677719       0.42957551       0.50000000 </v>
    <v>       0.99928255       0.57181462       0.50000000 </v>
    <v>       0.14396064       0.57181462       0.50000000 </v>
    <v>       0.28862787       0.57181625       0.50000000 </v>
    <v>       0.43313209       0.57215564       0.50000000 </v>
    <v>       0.71045212       0.57215564       0.50000000 </v>
    <v>       0.85461695       0.57181625       0.50000000 </v>
    <v>       0.99707234       0.71370518       0.50000000 </v>
    <v>       0.14255519       0.71368182       0.50000000 </v>
    <v>       0.28806142       0.71370518       0.50000000 </v>
    <v>       0.43464191       0.71382540       0.50000000 </v>
    <v>       0.58510826       0.71626937       0.50000000 </v>
    <v>       0.70258968       0.71626937       0.50000000 </v>
    <v>       0.85061206       0.71382540       0.50000000 </v>
    <v>       0.99777175       0.85613493       0.50000000 </v>
    <v>       0.14160898       0.85591288       0.50000000 </v>
    <v>       0.28573247       0.85591288       0.50000000 </v>
    <v>       0.42979175       0.85613493       0.50000000 </v>
    <v>       0.57342541       0.85758690       0.50000000 </v>
    <v>       0.71640633       0.86138410       0.50000000 </v>
    <v>       0.85559006       0.85758690       0.50000000 </v>
    <v>       0.04754270       0.09490969       0.50000000 </v>
    <v>       0.18957833       0.09405657       0.50000000 </v>
    <v>       0.33254182       0.09365506       0.50000000 </v>
    <v>       0.47590681       0.09405657       0.50000000 </v>
    <v>       0.61936376       0.09547788       0.50000000 </v>
    <v>       0.76280004       0.09719274       0.50000000 </v>
    <v>       0.90582126       0.09719274       0.50000000 </v>
    <v>       0.04854983       0.23934281       0.50000000 </v>
    <v>       0.19048138       0.23782962       0.50000000 </v>
    <v>       0.33234878       0.23634667       0.50000000 </v>
    <v>       0.47542646       0.23634667       0.50000000 </v>
    <v>       0.61877681       0.23782962       0.50000000 </v>
    <v>       0.76222155       0.23934281       0.50000000 </v>
    <v>       0.90562797       0.23982737       0.50000000 </v>
    <v>       0.04871288       0.38232824       0.50000000 </v>
    <v>       0.19188940       0.38184213       0.50000000 </v>
    <v>       0.33352206       0.38013969       0.50000000 </v>
    <v>       0.47472270       0.37801683       0.50000000 </v>
    <v>       0.61804620       0.38013969       0.50000000 </v>
    <v>       0.76138130       0.38184213       0.50000000 </v>
    <v>       0.90504393       0.38232824       0.50000000 </v>
    <v>       0.04810654       0.52478452       0.50000000 </v>
    <v>       0.19263929       0.52476864       0.50000000 </v>
    <v>       0.33696521       0.52455433       0.50000000 </v>
    <v>       0.47833704       0.52146721       0.50000000 </v>
    <v>       0.61455874       0.52146721       0.50000000 </v>
    <v>       0.75901769       0.52455433       0.50000000 </v>
    <v>       0.90355792       0.52476864       0.50000000 </v>
    <v>       0.04642473       0.66685228       0.50000000 </v>
    <v>       0.19185612       0.66685228       0.50000000 </v>
    <v>       0.33777931       0.66688794       0.50000000 </v>
    <v>       0.48615700       0.66710760       0.50000000 </v>
    <v>       0.75237918       0.66710760       0.50000000 </v>
    <v>       0.90053720       0.66688794       0.50000000 </v>
    <v>       0.04582562       0.80879365       0.50000000 </v>
    <v>       0.19009580       0.80876303       0.50000000 </v>
    <v>       0.33439660       0.80879365       0.50000000 </v>
    <v>       0.47844872       0.80897069       0.50000000 </v>
    <v>       0.62209487       0.81129474       0.50000000 </v>
    <v>       0.76062845       0.81129474       0.50000000 </v>
    <v>       0.90195054       0.80897069       0.50000000 </v>
    <v>       0.04629157       0.95154386       0.50000000 </v>
    <v>       0.18948291       0.95113037       0.50000000 </v>
    <v>       0.33307603       0.95113037       0.50000000 </v>
    <v>       0.47668087       0.95154386       0.50000000 </v>
    <v>       0.62015751       0.95313740       0.50000000 </v>
    <v>       0.76355772       0.95568687       0.50000000 </v>
    <v>       0.90440847       0.95313740       0.50000000 </v>
    <v>       0.56830873       0.56518888       0.50000000 </v>
   </varray>
  </structure>
  <varray name="forces" >
   <v>       0.00006820      -0.21533219       0.00000000 </v>
   <v>      -0.03484929      -0.01430720       0.00000000 </v>
   <v>      -0.00393195      -0.01450461       0.00000000 </v>
   <v>       0.02014505      -0.01032808       0.00000000 </v>
   <v>       0.03877356      -0.02737621      -0.00000000 </v>
   <v>      -0.03346705      -0.05331032       0.00000000 </v>
   <v>       0.04455954      -0.06886064       0.00000000 </v>
   <v>       0.12846433      -0.15368361       0.00000000 </v>
   <v>       0.01362348      -0.09558240       0.00000000 </v>
   <v>      -0.01018260      -0.04164741       0.00000000 </v>
   <v>       0.00577848      -0.03537049       0.00000000 </v>
   <v>       0.02561188      -0.02600075      -0.00000000 </v>
   <v>       0.00395331      -0.02721001       0.00000000 </v>
   <v>      -0.00741260      -0.03950706       0.00000000 </v>
   <v>      -0.02165674      -0.02586926       0.00000000 </v>
   <v>       0.01611620      -0.03542150       0.00000000 </v>
   <v>      -0.02238987      -0.00466185       0.00000000 </v>
   <v>       0.00019786      -0.09429183       0.00000000 </v>
   <v>       0.02965789      -0.00267910       0.00000000 </v>
   <v>      -0.00711922      -0.04358469       0.00000000 </v>
   <v>       0.00425483      -0.02709413       0.00000000 </v>
   <v>      -0.00318818       0.00988933       0.00000000 </v>
   <v>      -0.02563604       0.00314579       0.00000000 </v>
   <v>       0.06089340      -0.13583796       0.00000000 </v>
   <v>      -0.10946648      -0.19944676       0.00000000 </v>
   <v>       0.11224230      -0.19964016       0.00000000 </v>
   <v>      -0.05813171      -0.13707112       0.00000000 </v>
   <v>       0.02342469       0.00102493       0.00000000 </v>
   <v>       0.01547762       0.03146224      -0.00000000 </v>
   <v>      -0.01798659       0.03128539       0.00000000 </v>
   <v>      -0.08501890       0.13002749      -0.00000000 </v>
   <v>       0.05204951       0.39781542       0.00000000 </v>
   <v>      -0.05022731       0.39874705       0.00000000 </v>
   <v>       0.08491611       0.13088685       0.00000000 </v>
   <v>      -0.00902922       0.02647907       0.00000000 </v>
   <v>      -0.00146480       0.02991204       0.00000000 </v>
   <v>       0.00778004       0.02356814       0.00000000 </v>
   <v>       0.08694648       0.04361293       0.00000000 </v>
   <v>       1.36500918       1.25114063       0.00000000 </v>
   <v>      -1.36358390       1.25210349       0.00000000 </v>
   <v>      -0.08621434       0.04782316       0.00000000 </v>
   <v>      -0.04279560       0.00527880       0.00000000 </v>
   <v>      -0.01616363      -0.00199733       0.00000000 </v>
   <v>       0.01088502      -0.00386628       0.00000000 </v>
   <v>       0.04603338      -0.00787809       0.00000000 </v>
   <v>       0.15163505       0.03518217       0.00000000 </v>
   <v>       0.00283220      -0.25448123       0.00000000 </v>
   <v>      -0.14883814       0.04335716       0.00000000 </v>
   <v>      -0.23479597       0.49884930       0.00000000 </v>
   <v>       0.03746236       0.04165285      -0.00000000 </v>
   <v>       0.00373324       0.02997223       0.00000000 </v>
   <v>      -0.00894293       0.02406792      -0.00000000 </v>
   <v>      -0.02485870       0.03291396      -0.00000000 </v>
   <v>      -0.00908667       0.02960735      -0.00000000 </v>
   <v>       0.03422826       0.04236826       0.00000000 </v>
   <v>       0.04126250      -0.00247734       0.00000000 </v>
   <v>      -0.03790575      -0.00986429       0.00000000 </v>
   <v>       0.01345216       0.03993605       0.00000000 </v>
   <v>      -0.01539217       0.03701630       0.00000000 </v>
   <v>       0.00981606       0.00368988       0.00000000 </v>
   <v>      -0.01359081       0.03549146      -0.00000000 </v>
   <v>       0.00652121       0.02996900      -0.00000000 </v>
   <v>       0.01474821       0.02030155       0.00000000 </v>
   <v>       0.04560623       0.05331611      -0.00000000 </v>
   <v>      -0.02586929      -0.20181360       0.00000000 </v>
   <v>      -0.00105880       0.11080576      -0.00000000 </v>
   <v>       0.02183682      -0.20005494      -0.00000000 </v>
   <v>      -0.04670793       0.05857839      -0.00000000 </v>
   <v>      -0.00861111       0.02420758       0.00000000 </v>
   <v>       0.00165630       0.00610361       0.00000000 </v>
   <v>       0.02605746      -0.01046026       0.00000000 </v>
   <v>       0.18904997       0.11027180       0.00000000 </v>
   <v>       1.02156273      -1.56449490       0.00000000 </v>
   <v>      -1.02410350      -1.56402482       0.00000000 </v>
   <v>      -0.19016910       0.11092392      -0.00000000 </v>
   <v>      -0.02456352      -0.00929723       0.00000000 </v>
   <v>       0.01145410      -0.03607160      -0.00000000 </v>
   <v>      -0.00855641      -0.03528448      -0.00000000 </v>
   <v>      -0.05876811      -0.06811753       0.00000000 </v>
   <v>      -0.27132058       0.00834919       0.00000000 </v>
   <v>       0.26917274       0.00678411      -0.00000000 </v>
   <v>       0.05939047      -0.06972171       0.00000000 </v>
   <v>       0.03965793      -0.01920254       0.00000000 </v>
   <v>       0.00272225      -0.01313213       0.00000000 </v>
   <v>      -0.03499954      -0.01395752      -0.00000000 </v>
   <v>      -0.08519503      -0.01372447       0.00000000 </v>
   <v>      -0.88777044       0.24412579      -0.00000000 </v>
   <v>       0.88233923       0.24191081      -0.00000000 </v>
   <v>       0.08276037      -0.01964556      -0.00000000 </v>
   <v>       0.05167018      -0.02487559      -0.00000000 </v>
   <v>       0.01646274      -0.00478019      -0.00000000 </v>
   <v>      -0.00746937      -0.00377332       0.00000000 </v>
   <v>      -0.03053323       0.01733667       0.00000000 </v>
   <v>      -0.11012271       0.12039960       0.00000000 </v>
   <v>      -0.00237474       0.02031797      -0.00000000 </v>
   <v>       0.08631591       0.10895427       0.00000000 </v>
   <v>       0.00125151      -0.11934746       0.00000000 </v>
  </varray>
  <varray name="stress" >
   <v>     -10.63233976       0.01728723       0.00000000 </v>
   <v>       0.01728723       3.06590851       0.00000000 </v>
   <v>       0.00000000       0.00000000      -0.42556389 </v>
  </varray>
  <energy>
   <i name="e_fr_energy">   -845.65278652 </i>
   <i name="e_wo_entrp">   -845.65278652 </i>
   <i name="e_0_energy">     -0.00000000 </i>
  </energy>
  <time name="totalsc">  103.74  105.13</time>
  <eigenvalues>
   <array>
    <dimension dim="1">band</dimension>
    <dimension dim="2">kpoint</dimension>
    <dimension dim="3">spin</dimension>
    <field>eigene</field>
    <field>occ</field>
    <set>
     <set comment="spin 1">
      <set comment="kpoint 1">
       <r>  -22.5413    1.0000 </r>
       <r>  -22.0203    1.0000 </r>
       <r>  -21.7748    1.0000 </r>
       <r>  -21.7447    1.0000 </r>
       <r>  -21.6962    1.0000 </r>
       <r>  -21.6528    1.0000 </r>
       <r>  -21.6178    1.0000 </r>
       <r>  -21.2367    1.0000 </r>
       <r>  -21.0698    1.0000 </r>
       <r>  -21.0051    1.0000 </r>
       <r>  -20.9689    1.0000 </r>
       <r>  -20.9274    1.0000 </r>
       <r>  -20.8756    1.0000 </r>
       <r>  -20.7459    1.0000 </r>
       <r>  -20.7014    1.0000 </r>
       <r>  -20.6635    1.0000 </r>
       <r>  -20.5945    1.0000 </r>
       <r>  -20.5675    1.0000 </r>
       <r>  -20.4282    1.0000 </r>
       <r>  -19.9814    1.0000 </r>
       <r>  -19.9247    1.0000 </r>
       <r>  -19.8044    1.0000 </r>
       <r>  -19.7643    1.0000 </r>
       <r>  -19.7370    1.0000 </r>
       <r>  -19.7352    1.0000 </r>
       <r>  -19.7061    1.0000 </r>
       <r>  -19.6984    1.0000 </r>
       <r>  -19.6430    1.0000 </r>
       <r>  -19.6414    1.0000 </r>
       <r>  -19.6285    1.0000 </r>
       <r>  -19.4924    1.0000 </r>
       <r>  -19.4072    1.0000 </r>
       <r>  -19.3646    1.0000 </r>
       <r>  -19.3569    1.0000 </r>
       <r>  -19.2904    1.0000 </r>
       <r>  -19.2377    1.0000 </r>
       <r>  -19.1078    1.0000 </r>
       <r>  -18.9996    1.0000 </r>
       <r>  -18.9331    1.0000 </r>
       <r>  -18.8754    1.0000 </r>
       <r>  -18.8520    1.0000 </r>
       <r>  -18.8370    1.0000 </r>
       <r>  -18.7667    1.0000 </r>
       <r>  -18.7518    1.0000 </r>
       <r>  -18.7285    1.0000 </r>
       <r>  -18.7126    1.0000 </r>
       <r>  -18.6922    1.0000 </r>
       <r>  -18.4431    1.0000 </r>
       <r>  -14.1411    1.0000 </r>
       <r>  -13.1816    1.0000 </r>
       <r>  -13.1571    1.0000 </r>
       <r>  -13.1112    1.0000 </r>
       <r>  -13.1043    1.0000 </r>
       <r>  -13.0811    1.0000 </r>
       <r>  -13.0156    1.0000 </r>
       <r>  -12.9574    1.0000 </r>
       <r>  -12.9508    1.0000 </r>
       <r>  -12.9366    1.0000 </r>
       <r>  -12.8045    1.0000 </r>
       <r>  -12.7667    1.0000 </r>
       <r>  -12.6018    1.0000 </r>
       <r>  -12.5058    1.0000 </r>
       <r>  -12.4862    1.0000 </r>
       <r>  -12.3773    1.0000 </r>
       <r>  -12.3086    1.0000 </r>
       <r>  -12.2965    1.0000 </r>
       <r>  -12.1756    1.0000 </r>
       <r>  -11.9032    1.0000 </r>
       <r>  -11.8848    1.0000 </r>
       <r>  -11.7652    1.0000 </r>
       <r>  -11.7638    1.0000 </r>
       <r>  -11.7518    1.0000 </r>
       <r>  -11.7419    1.0000 </r>
       <r>  -11.6968    1.0000 </r>
       <r>  -11.6573    1.0000 </r>
       <r>  -11.6301    1.0000 </r>
       <r>  -11.5400    1.0000 </r>
       <r>  -11.4210    1.0000 </r>
       <r>  -11.1994    1.0000 </r>
       <r>  -11.1235    1.0000 </r>
       <r>  -11.0841    1.0000 </r>
       <r>  -11.0566    1.0000 </r>
       <r>  -10.9691    1.0000 </r>
       <r>  -10.9114    1.0000 </r>
       <r>  -10.6864    1.0000 </r>
       <r>  -10.4610    1.0000 </r>
       <r>  -10.4303    1.0000 </r>
       <r>  -10.3504    1.0000 </r>
       <r>  -10.2573    1.0000 </r>
       <r>  -10.2060    1.0000 </r>
       <r>   -9.8902    1.0000 </r>
       <r>   -9.7689    1.0000 </r>
       <r>   -9.7621    1.0000 </r>
       <r>   -9.7249    1.0000 </r>
       <r>   -9.6788    1.0000 </r>
       <r>   -9.5865    1.0000 </r>
       <r>   -9.5427    1.0000 </r>
       <r>   -9.4981    1.0000 </r>
       <r>   -9.4628    1.0000 </r>
       <r>   -9.3523    1.0000 </r>
       <r>   -9.3459    1.0000 </r>
       <r>   -9.2888    1.0000 </r>
       <r>   -9.2621    1.0000 </r>
       <r>   -9.2582    1.0000 </r>
       <r>   -9.2498    1.0000 </r>
       <r>   -9.2354    1.0000 </r>
       <r>   -9.2249    1.0000 </r>
       <r>   -9.2236    1.0000 </r>
       <r>   -9.2069    1.0000 </r>
       <r>   -9.2035    1.0000 </r>
       <r>   -9.1993    1.0000 </r>
       <r>   -9.1953    1.0000 </r>
       <r>   -9.1556    1.0000 </r>
       <r>   -9.1341    1.0000 </r>
       <r>   -9.1129    1.0000 </r>
       <r>   -9.1098    1.0000 </r>
       <r>   -9.0996    1.0000 </r>
       <r>   -9.0462    1.0000 </r>
       <r>   -8.9929    1.0000 </r>
       <r>   -8.8450    1.0000 </r>
       <r>   -8.7975    1.0000 </r>
       <r>   -8.6545    1.0000 </r>
       <r>   -8.5046    1.0000 </r>
       <r>   -8.4811    1.0000 </r>
       <r>   -8.4419    1.0000 </r>
       <r>   -8.3282    1.0000 </r>
       <r>   -8.2229    1.0000 </r>
       <r>   -8.2017    1.0000 </r>
       <r>   -8.1980    1.0000 </r>
       <r>   -8.1705    1.0000 </r>
       <r>   -8.1473    1.0000 </r>
       <r>   -8.1233    1.0000 </r>
       <r>   -8.0382    1.0000 </r>
       <r>   -7.9685    1.0000 </r>
       <r>   -7.9510    1.0000 </r>
       <r>   -7.8734    1.0000 </r>
       <r>   -7.8482    1.0000 </r>
       <r>   -7.8456    1.0000 </r>
       <r>   -7.8067    1.0000 </r>
       <r>   -7.8013    1.0000 </r>
       <r>   -7.7996    1.0000 </r>
       <r>   -7.7364    1.0000 </r>
       <r>   -7.7341    1.0000 </r>
       <r>   -7.7119    1.0000 </r>
       <r>   -7.6780    1.0000 </r>
       <r>   -7.6749    1.0000 </r>
       <r>   -7.6613    1.0000 </r>
       <r>   -7.6373    1.0000 </r>
       <r>   -7.6308    1.0000 </r>
       <r>   -7.4414    1.0000 </r>
       <r>   -7.4381    1.0000 </r>
       <r>   -7.4279    1.0000 </r>
       <r>   -7.3819    1.0000 </r>
       <r>   -7.3582    1.0000 </r>
       <r>   -7.2739    1.0000 </r>
       <r>   -6.8290    1.0000 </r>
       <r>   -6.7574    1.0000 </r>
       <r>   -6.6228    1.0000 </r>
       <r>   -6.6062    1.0000 </r>
       <r>   -6.5436    1.0000 </r>
       <r>   -6.5430    1.0000 </r>
       <r>   -6.5023    1.0000 </r>
       <r>   -6.4888    1.0000 </r>
       <r>   -6.4569    1.0000 </r>
       <r>   -6.4554    1.0000 </r>
       <r>   -6.4415    1.0000 </r>
       <r>   -6.4387    1.0000 </r>
       <r>   -6.4095    1.0000 </r>
       <r>   -6.4048    1.0000 </r>
       <r>   -6.3592    1.0000 </r>
       <r>   -6.3456    1.0000 </r>
       <r>   -6.3180    1.0000 </r>
       <r>   -6.1104    1.0000 </r>
       <r>   -5.9661    1.0000 </r>
       <r>   -5.9270    1.0000 </r>
       <r>   -5.8864    1.0000 </r>
       <r>   -5.8791    1.0000 </r>
       <r>   -5.8623    1.0000 </r>
       <r>   -5.7824    1.0000 </r>
       <r>   -5.7772    1.0000 </r>
       <r>   -5.5283    1.0000 </r>
       <r>   -5.2211    1.0000 </r>
       <r>   -5.1972    1.0000 </r>
       <r>   -5.1967    1.0000 </r>
       <r>   -5.1405    1.0000 </r>
       <r>   -5.1323    1.0000 </r>
       <r>   -5.1047    1.0000 </r>
       <r>   -4.9997    1.0000 </r>
       <r>   -4.9442    1.0000 </r>
       <r>   -4.9179    1.0000 </r>
       <r>   -4.9065    1.0000 </r>
       <r>   -4.8992    1.0000 </r>
       <r>   -4.7303    1.0000 </r>
       <r>   -1.3153    1.0000 </r>
       <r>   -1.2023    0.0000 </r>
       <r>    0.0595    0.0000 </r>
       <r>    0.2048    0.0000 </r>
       <r>    0.2402    0.0000 </r>
       <r>    0.2583    0.0000 </r>
       <r>    0.2603    0.0000 </r>
       <r>    0.3035    0.0000 </r>
       <r>    0.3051    0.0000 </r>
       <r>    0.3782    0.0000 </r>
       <r>    0.3958    0.0000 </r>
       <r>    0.4311    0.0000 </r>
       <r>    0.4798    0.0000 </r>
       <r>    0.5255    0.0000 </r>
       <r>    0.6105    0.0000 </r>
       <r>    0.7480    0.0000 </r>
       <r>    0.7483    0.0000 </r>
       <r>    0.7750    0.0000 </r>
       <r>    0.8052    0.0000 </r>
       <r>    0.8119    0.0000 </r>
       <r>    0.8281    0.0000 </r>
       <r>    0.8385    0.0000 </r>
       <r>    0.8597    0.0000 </r>
       <r>    0.8702    0.0000 </r>
       <r>    0.9831    0.0000 </r>
       <r>    1.0202    0.0000 </r>
       <r>    1.0600    0.0000 </r>
       <r>    1.1190    0.0000 </r>
       <r>    1.4953    0.0000 </r>
       <r>    1.6731    0.0000 </r>
       <r>    1.6963    0.0000 </r>
       <r>    1.7066    0.0000 </r>
       <r>    1.7233    0.0000 </r>
       <r>    1.7408    0.0000 </r>
       <r>    1.7444    0.0000 </r>
       <r>    1.8045    0.0000 </r>
       <r>    1.8077    0.0000 </r>
       <r>    1.8436    0.0000 </r>
       <r>    1.8483    0.0000 </r>
       <r>    1.8775    0.0000 </r>
       <r>    1.8843    0.0000 </r>
       <r>    1.9044    0.0000 </r>
       <r>    1.9068    0.0000 </r>
       <r>    1.9309    0.0000 </r>
       <r>    1.9846    0.0000 </r>
       <r>    2.0303    0.0000 </r>
       <r>    2.1030    0.0000 </r>
       <r>    2.1075    0.0000 </r>
       <r>    2.1276    0.0000 </r>
       <r>    2.1325    0.0000 </r>
       <r>    2.1405    0.0000 </r>
      </set>
     </set>
    </set>
   </array>
  </eigenvalues>
  <separator name="orbital magnetization" >
   <v name="MAGDIPOLOUT">      0.00000000      0.00000000      0.00000000</v>
  </separator>
  <dos>
   <i name="efermi">     -1.25218604 </i>
   <total>
    <array>
     <dimension dim="1">gridpoints</dimension>
     <dimension dim="2">spin</dimension>
     <field>energy</field>
     <field>total</field>
     <field>integrated</field>
     <set>
      <set comment="spin 1">
       <r>   -23.7753     0.0000     0.0000 </r>
       <r>   -23.6848     0.0000     0.0000 </r>
       <r>   -23.5943     0.0000     0.0000 </r>
       <r>   -23.5038     0.0000     0.0000 </r>
       <r>   -23.4133     0.0000     0.0000 </r>
       <r>   -23.3228     0.0000     0.0000 </r>
       <r>   -23.2323     0.0000     0.0000 </r>
       <r>   -23.1418     0.0000     0.0000 </r>
       <r>   -23.0514     0.0000     0.0000 </r>
       <r>   -22.9609     0.0000     0.0000 </r>
       <r>   -22.8704     0.0000     0.0000 </r>
       <r>   -22.7799     0.0000     0.0000 </r>
       <r>   -22.6894     0.0000     0.0000 </r>
       <r>   -22.5989     0.0000     0.0000 </r>
       <r>   -22.5084    22.0994     2.0000 </r>
       <r>   -22.4179     0.0000     2.0000 </r>
       <r>   -22.3274     0.0000     2.0000 </r>
       <r>   -22.2369     0.0000     2.0000 </r>
       <r>   -22.1464     0.0000     2.0000 </r>
       <r>   -22.0559     0.0000     2.0000 </r>
       <r>   -21.9654    22.0995     4.0000 </r>
       <r>   -21.8749     0.0000     4.0000 </r>
       <r>   -21.7844     1.9758     4.1788 </r>
       <r>   -21.6939    35.9824     9.2564 </r>
       <r>   -21.6034    43.7522    13.9596 </r>
       <r>   -21.5129     0.0000    14.0000 </r>
       <r>   -21.4224     0.0000    14.0000 </r>
       <r>   -21.3319     0.0000    14.0000 </r>
       <r>   -21.2414     5.6234    14.5089 </r>
       <r>   -21.1509     0.0000    16.0000 </r>
       <r>   -21.0604    20.0981    17.8189 </r>
       <r>   -20.9699    31.9911    20.8952 </r>
       <r>   -20.8794    28.7006    24.5974 </r>
       <r>   -20.7889     0.0000    26.0000 </r>
       <r>   -20.6984    36.8651    29.3363 </r>
       <r>   -20.6079    22.7563    32.0594 </r>
       <r>   -20.5174    43.5421    36.0000 </r>
       <r>   -20.4269    12.7698    37.1557 </r>
       <r>   -20.3364     0.0000    38.0000 </r>
       <r>   -20.2459     0.0000    38.0000 </r>
       <r>   -20.1554     0.0000    38.0000 </r>
       <r>   -20.0649     0.0000    38.0000 </r>
       <r>   -19.9744    18.5527    39.6790 </r>
       <r>   -19.8839    22.0995    42.0000 </r>
       <r>   -19.7934    20.7922    43.8817 </r>
       <r>   -19.7029    87.1641    51.8884 </r>
       <r>   -19.6124    66.0544    59.9779 </r>
       <r>   -19.5219     0.0003    60.0000 </r>
       <r>   -19.4314    22.1061    62.0006 </r>
       <r>   -19.3409    66.0255    67.9759 </r>
       <r>   -19.2504    22.9023    70.0727 </r>
       <r>   -19.1599    21.2966    72.0000 </r>
       <r>   -19.0694    22.0995    74.0000 </r>
       <r>   -18.9789    22.0618    75.9966 </r>
       <r>   -18.8884    22.8288    78.0660 </r>
       <r>   -18.7979    65.5692    84.0000 </r>
       <r>   -18.7074    83.6749    91.5726 </r>
       <r>   -18.6169    21.7459    94.0000 </r>
       <r>   -18.5264     0.0000    94.0000 </r>
       <r>   -18.4359    18.7370    95.6957 </r>
       <r>   -18.3454     0.0000    96.0000 </r>
       <r>   -18.2549     0.0000    96.0000 </r>
       <r>   -18.1644     0.0000    96.0000 </r>
       <r>   -18.0739     0.0000    96.0000 </r>
       <r>   -17.9834     0.0000    96.0000 </r>
       <r>   -17.8929     0.0000    96.0000 </r>
       <r>   -17.8024     0.0000    96.0000 </r>
       <r>   -17.7119     0.0000    96.0000 </r>
       <r>   -17.6214     0.0000    96.0000 </r>
       <r>   -17.5309     0.0000    96.0000 </r>
       <r>   -17.4404     0.0000    96.0000 </r>
       <r>   -17.3499     0.0000    96.0000 </r>
       <r>   -17.2594     0.0000    96.0000 </r>
       <r>   -17.1689     0.0000    96.0000 </r>
       <r>   -17.0784     0.0000    96.0000 </r>
       <r>   -16.9879     0.0000    96.0000 </r>
       <r>   -16.8974     0.0000    96.0000 </r>
       <r>   -16.8069     0.0000    96.0000 </r>
       <r>   -16.7164     0.0000    96.0000 </r>
       <r>   -16.6259     0.0000    96.0000 </r>
       <r>   -16.5354     0.0000    96.0000 </r>
       <r>   -16.4449     0.0000    96.0000 </r>
       <r>   -16.3544     0.0000    96.0000 </r>
       <r>   -16.2639     0.0000    96.0000 </r>
       <r>   -16.1734     0.0000    96.0000 </r>
       <r>   -16.0829     0.0000    96.0000 </r>
       <r>   -15.9924     0.0000    96.0000 </r>
       <r>   -15.9019     0.0000    96.0000 </r>
       <r>   -15.8114     0.0000    96.0000 </r>
       <r>   -15.7209     0.0000    96.0000 </r>
       <r>   -15.6304     0.0000    96.0000 </r>
       <r>   -15.5399     0.0000    96.0000 </r>
       <r>   -15.4494     0.0000    96.0000 </r>
       <r>   -15.3589     0.0000    96.0000 </r>
       <r>   -15.2684     0.0000    96.0000 </r>
       <r>   -15.1779     0.0000    96.0000 </r>
       <r>   -15.0874     0.0000    96.0000 </r>
       <r>   -14.9969     0.0000    96.0000 </r>
       <r>   -14.9064     0.0000    96.0000 </r>
       <r>   -14.8159     0.0000    96.0000 </r>
       <r>   -14.7254     0.0000    96.0000 </r>
       <r>   -14.6349     0.0000    96.0000 </r>
       <r>   -14.5444     0.0000    96.0000 </r>
       <r>   -14.4539     0.0000    96.0000 </r>
       <r>   -14.3634     0.0000    96.0000 </r>
       <r>   -14.2729     0.0000    96.0000 </r>
       <r>   -14.1824     0.0000    96.0000 </r>
       <r>   -14.0919    22.0995    98.0000 </r>
       <r>   -14.0014     0.0000    98.0000 </r>
       <r>   -13.9109     0.0000    98.0000 </r>
       <r>   -13.8204     0.0000    98.0000 </r>
       <r>   -13.7299     0.0000    98.0000 </r>
       <r>   -13.6394     0.0000    98.0000 </r>
       <r>   -13.5489     0.0000    98.0000 </r>
       <r>   -13.4584     0.0000    98.0000 </r>
       <r>   -13.3679     0.0000    98.0000 </r>
       <r>   -13.2774     0.0000    98.0000 </r>
       <r>   -13.1869     5.0723    98.4590 </r>
       <r>   -13.0964    63.3271   105.7311 </r>
       <r>   -13.0059    41.9697   109.8296 </r>
       <r>   -12.9154    66.2693   115.9974 </r>
       <r>   -12.8249     0.0435   116.0039 </r>
       <r>   -12.7344    44.1554   120.0000 </r>
       <r>   -12.6439     0.0000   120.0000 </r>
       <r>   -12.5534    22.0995   122.0000 </r>
       <r>   -12.4629    44.1881   125.9990 </r>
       <r>   -12.3724    16.7496   127.5158 </r>
       <r>   -12.2819    43.7778   131.9619 </r>
       <r>   -12.1914     0.2846   132.0258 </r>
       <r>   -12.1009    21.8149   134.0000 </r>
       <r>   -12.0104     0.0000   134.0000 </r>
       <r>   -11.9199     0.2030   134.0184 </r>
       <r>   -11.8294    43.9959   138.0000 </r>
       <r>   -11.7389    80.3089   145.2680 </r>
       <r>   -11.6484    42.0383   149.8045 </r>
       <r>   -11.5579    22.1168   152.0114 </r>
       <r>   -11.4674    21.9730   154.0000 </r>
       <r>   -11.3769    22.0995   156.0000 </r>
       <r>   -11.2864     0.0000   156.0000 </r>
       <r>   -11.1959    15.2883   157.3836 </r>
       <r>   -11.1054    22.0143   159.9923 </r>
       <r>   -11.0149    44.1695   164.0000 </r>
       <r>   -10.9244    22.8480   166.0677 </r>
       <r>   -10.8339    21.3509   168.0000 </r>
       <r>   -10.7434     0.0000   168.0000 </r>
       <r>   -10.6529    22.0994   170.0000 </r>
       <r>   -10.5624     0.0000   170.0000 </r>
       <r>   -10.4719     1.3869   170.1255 </r>
       <r>   -10.3814    42.8122   174.0000 </r>
       <r>   -10.2909    22.0994   176.0000 </r>
       <r>   -10.2004    39.5101   179.5757 </r>
       <r>   -10.1099     0.0000   180.0000 </r>
       <r>   -10.0194     0.0000   180.0000 </r>
       <r>    -9.9289     0.0000   180.0000 </r>
       <r>    -9.8384    22.0995   182.0000 </r>
       <r>    -9.7479    43.6942   185.9543 </r>
       <r>    -9.6574    44.1594   189.9976 </r>
       <r>    -9.5669    22.0450   191.9951 </r>
       <r>    -9.4764    44.7798   196.0532 </r>
       <r>    -9.3859    21.4881   198.0000 </r>
       <r>    -9.2954    48.0851   202.3517 </r>
       <r>    -9.2049   162.1222   218.6720 </r>
       <r>    -9.1144    59.4789   229.3828 </r>
       <r>    -9.0239    43.7793   235.9984 </r>
       <r>    -8.9334    22.0993   238.0000 </r>
       <r>    -8.8429    13.6429   239.2347 </r>
       <r>    -8.7524    22.0995   242.0000 </r>
       <r>    -8.6619     3.2996   242.2986 </r>
       <r>    -8.5714     0.0000   244.0000 </r>
       <r>    -8.4809    33.4389   247.0262 </r>
       <r>    -8.3904    22.0995   250.0000 </r>
       <r>    -8.2999    22.0988   251.9999 </r>
       <r>    -8.2094    25.8001   254.3349 </r>
       <r>    -8.1189    81.3333   263.4701 </r>
       <r>    -8.0284    20.3053   265.8376 </r>
       <r>    -7.9379    43.5000   269.9367 </r>
       <r>    -7.8474    43.0356   273.8947 </r>
       <r>    -7.7569    66.3538   282.0050 </r>
       <r>    -7.6664   112.0489   292.1454 </r>
       <r>    -7.5759    44.1985   298.0000 </r>
       <r>    -7.4854     0.0000   298.0000 </r>
       <r>    -7.3949    67.0361   304.0668 </r>
       <r>    -7.3044    43.4614   308.0000 </r>
       <r>    -7.2139    22.0993   310.0000 </r>
       <r>    -7.1234     0.0000   310.0000 </r>
       <r>    -7.0329     0.0000   310.0000 </r>
       <r>    -6.9424     0.0000   310.0000 </r>
       <r>    -6.8519     0.0135   310.0012 </r>
       <r>    -6.7614    28.4254   312.5737 </r>
       <r>    -6.6709     0.0000   314.0000 </r>
       <r>    -6.5804    44.1961   317.9997 </r>
       <r>    -6.4899    75.1638   324.8023 </r>
       <r>    -6.3994   126.0677   337.4091 </r>
       <r>    -6.3089    64.1145   343.8024 </r>
       <r>    -6.2184     0.0000   344.0000 </r>
       <r>    -6.1279     0.1478   344.0134 </r>
       <r>    -6.0374    21.9516   346.0000 </r>
       <r>    -5.9469    22.0839   347.9986 </r>
       <r>    -5.8564    83.9103   355.5989 </r>
       <r>    -5.7659    42.7650   359.8702 </r>
       <r>    -5.6754     0.0000   360.0000 </r>
       <r>    -5.5849     0.0000   360.0000 </r>
       <r>    -5.4944    22.0995   362.0000 </r>
       <r>    -5.4039     0.0000   362.0000 </r>
       <r>    -5.3134     0.0000   362.0000 </r>
       <r>    -5.2229     8.9237   362.8076 </r>
       <r>    -5.1324    74.4802   370.7409 </r>
       <r>    -5.0419    22.0984   374.0000 </r>
       <r>    -4.9514    25.5646   376.3136 </r>
       <r>    -4.8609    66.2984   384.0000 </r>
       <r>    -4.7704     0.0000   384.0000 </r>
       <r>    -4.6799    22.0995   386.0000 </r>
       <r>    -4.5894     0.0000   386.0000 </r>
       <r>    -4.4989     0.0000   386.0000 </r>
       <r>    -4.4084     0.0000   386.0000 </r>
       <r>    -4.3179     0.0000   386.0000 </r>
       <r>    -4.2274     0.0000   386.0000 </r>
       <r>    -4.1369     0.0000   386.0000 </r>
       <r>    -4.0464     0.0000   386.0000 </r>
       <r>    -3.9559     0.0000   386.0000 </r>
       <r>    -3.8654     0.0000   386.0000 </r>
       <r>    -3.7749     0.0000   386.0000 </r>
       <r>    -3.6844     0.0000   386.0000 </r>
       <r>    -3.5939     0.0000   386.0000 </r>
       <r>    -3.5034     0.0000   386.0000 </r>
       <r>    -3.4129     0.0000   386.0000 </r>
       <r>    -3.3224     0.0000   386.0000 </r>
       <r>    -3.2319     0.0000   386.0000 </r>
       <r>    -3.1414     0.0000   386.0000 </r>
       <r>    -3.0509     0.0000   386.0000 </r>
       <r>    -2.9604     0.0000   386.0000 </r>
       <r>    -2.8699     0.0000   386.0000 </r>
       <r>    -2.7794     0.0000   386.0000 </r>
       <r>    -2.6889     0.0000   386.0000 </r>
       <r>    -2.5984     0.0000   386.0000 </r>
       <r>    -2.5079     0.0000   386.0000 </r>
       <r>    -2.4174     0.0000   386.0000 </r>
       <r>    -2.3269     0.0000   386.0000 </r>
       <r>    -2.2364     0.0000   386.0000 </r>
       <r>    -2.1459     0.0000   386.0000 </r>
       <r>    -2.0554     0.0000   386.0000 </r>
       <r>    -1.9649     0.0000   386.0000 </r>
       <r>    -1.8744     0.0000   386.0000 </r>
       <r>    -1.7839     0.0000   386.0000 </r>
       <r>    -1.6934     0.0000   386.0000 </r>
       <r>    -1.6029     0.0000   386.0000 </r>
       <r>    -1.5124     0.0000   386.0000 </r>
       <r>    -1.4219     0.0000   386.0000 </r>
       <r>    -1.3314     0.2539   386.0230 </r>
       <r>    -1.2409    21.8456   388.0000 </r>
       <r>    -1.1504    22.0995   390.0000 </r>
       <r>    -1.0599     0.0000   390.0000 </r>
       <r>    -0.9694     0.0000   390.0000 </r>
       <r>    -0.8789     0.0000   390.0000 </r>
       <r>    -0.7884     0.0000   390.0000 </r>
       <r>    -0.6979     0.0000   390.0000 </r>
       <r>    -0.6074     0.0000   390.0000 </r>
       <r>    -0.5169     0.0000   390.0000 </r>
       <r>    -0.4264     0.0000   390.0000 </r>
       <r>    -0.3359     0.0000   390.0000 </r>
       <r>    -0.2454     0.0000   390.0000 </r>
       <r>    -0.1549     0.0000   390.0000 </r>
       <r>    -0.0644     0.0000   390.0000 </r>
       <r>     0.0261     0.0000   390.0000 </r>
       <r>     0.1166    22.0994   392.0000 </r>
       <r>     0.2071    13.9337   393.2610 </r>
       <r>     0.2976    73.9627   400.6936 </r>
       <r>     0.3881    23.3812   406.1160 </r>
       <r>     0.4786    31.6799   410.8670 </r>
       <r>     0.5691    22.0995   414.0000 </r>
       <r>     0.6596    22.0995   416.0000 </r>
       <r>     0.7501    26.9689   418.4407 </r>
       <r>     0.8406   101.2407   429.1627 </r>
       <r>     0.9311    44.1223   434.0000 </r>
       <r>     1.0216    34.9229   437.1605 </r>
       <r>     1.1121    25.7334   440.3289 </r>
       <r>     1.2026     0.0000   442.0000 </r>
       <r>     1.2931     0.0000   442.0000 </r>
       <r>     1.3836     0.0000   442.0000 </r>
       <r>     1.4741     0.0304   442.0028 </r>
       <r>     1.5646    22.0691   444.0000 </r>
       <r>     1.6551     0.1233   444.0112 </r>
       <r>     1.7456   117.5328   454.6479 </r>
       <r>     1.8361    48.3332   460.3742 </r>
       <r>     1.9266   115.5487   472.5420 </r>
       <r>     2.0171    22.7813   476.0617 </r>
       <r>     2.1076    49.0619   480.5018 </r>
       <r>     2.1981    66.2419   488.0000 </r>
       <r>     2.2886     0.0000   488.0000 </r>
       <r>     2.3791     0.0000   488.0000 </r>
       <r>     2.4696     0.0000   488.0000 </r>
       <r>     2.5601     0.0000   488.0000 </r>
       <r>     2.6506     0.0000   488.0000 </r>
       <r>     2.7411     0.0000   488.0000 </r>
       <r>     2.8316     0.0000   488.0000 </r>
       <r>     2.9221     0.0000   488.0000 </r>
       <r>     3.0126     0.0000   488.0000 </r>
       <r>     3.1031     0.0000   488.0000 </r>
       <r>     3.1936     0.0000   488.0000 </r>
       <r>     3.2841     0.0000   488.0000 </r>
       <r>     3.3746     0.0000   488.0000 </r>
      </set>
     </set>
    </array>
   </total>
  </dos>
 </calculation>
 <structure name="finalpos" >
  <crystal>
   <varray name="basis" >
    <v>      17.59966831       0.00000000       0.00000000 </v>
    <v>      -8.79983416      15.24175986       0.00000000 </v>
    <v>       0.00000000       0.00000000      19.92151445 </v>
   </varray>
   <i name="volume">   5343.94461817 </i>
   <varray name="rec_basis" >
    <v>       0.05681925       0.03280461       0.00000000 </v>
    <v>       0.00000000       0.06560922       0.00000000 </v>
    <v>       0.00000000       0.00000000       0.05019699 </v>
   </varray>
  </crystal>
  <varray name="positions" >
   <v>       0.99943010       0.00005992       0.50000000 </v>
   <v>       0.14164706       0.99871895       0.50000000 </v>
   <v>       0.28492260       0.99841663       0.50000000 </v>
   <v>       0.42850047       0.99871895       0.50000000 </v>
   <v>       0.57205839       0.00005992       0.50000000 </v>
   <v>       0.71530655       0.00214292       0.50000000 </v>
   <v>       0.85826494       0.00214292       0.50000000 </v>
   <v>       0.00080792       0.14408264       0.50000000 </v>
   <v>       0.14259355       0.14244783       0.50000000 </v>
   <v>       0.28470221       0.14112972       0.50000000 </v>
   <v>       0.42785608       0.14112972       0.50000000 </v>
   <v>       0.57128286       0.14244783       0.50000000 </v>
   <v>       0.71470329       0.14408264       0.50000000 </v>
   <v>       0.85805263       0.14467669       0.50000000 </v>
   <v>       0.00095476       0.28713011       0.50000000 </v>
   <v>       0.14372552       0.28645370       0.50000000 </v>
   <v>       0.28540977       0.28469374       0.50000000 </v>
   <v>       0.42724431       0.28306005       0.50000000 </v>
   <v>       0.57071254       0.28469374       0.50000000 </v>
   <v>       0.71415674       0.28645370       0.50000000 </v>
   <v>       0.85760392       0.28713011       0.50000000 </v>
   <v>       0.00054479       0.42966101       0.50000000 </v>
   <v>       0.14422690       0.42957551       0.50000000 </v>
   <v>       0.28730213       0.42918005       0.50000000 </v>
   <v>       0.42797654       0.42569726       0.50000000 </v>
   <v>       0.56914930       0.42569726       0.50000000 </v>
   <v>       0.71330650       0.42918005       0.50000000 </v>
   <v>       0.85677719       0.42957551       0.50000000 </v>
   <v>       0.99928255       0.57181462       0.50000000 </v>
   <v>       0.14396064       0.57181462       0.50000000 </v>
   <v>       0.28862787       0.57181625       0.50000000 </v>
   <v>       0.43313209       0.57215564       0.50000000 </v>
   <v>       0.71045212       0.57215564       0.50000000 </v>
   <v>       0.85461695       0.57181625       0.50000000 </v>
   <v>       0.99707234       0.71370518       0.50000000 </v>
   <v>       0.14255519       0.71368182       0.50000000 </v>
   <v>       0.28806142       0.71370518       0.50000000 </v>
   <v>       0.43464191       0.71382540       0.50000000 </v>
   <v>       0.58510826       0.71626937       0.50000000 </v>
   <v>       0.70258968       0.71626937       0.50000000 </v>
   <v>       0.85061206       0.71382540       0.50000000 </v>
   <v>       0.99777175       0.85613493       0.50000000 </v>
   <v>       0.14160898       0.85591288       0.50000000 </v>
   <v>       0.28573247       0.85591288       0.50000000 </v>
   <v>       0.42979175       0.85613493       0.50000000 </v>
   <v>       0.57342541       0.85758690       0.50000000 </v>
   <v>       0.71640633       0.86138410       0.50000000 </v>
   <v>       0.85559006       0.85758690       0.50000000 </v>
   <v>       0.04754270       0.09490969       0.50000000 </v>
   <v>       0.18957833       0.09405657       0.50000000 </v>
   <v>       0.33254182       0.09365506       0.50000000 </v>
   <v>       0.47590681       0.09405657       0.50000000 </v>
   <v>       0.61936376       0.09547788       0.50000000 </v>
   <v>       0.76280004       0.09719274       0.50000000 </v>
   <v>       0.90582126       0.09719274       0.50000000 </v>
   <v>       0.04854983       0.23934281       0.50000000 </v>
   <v>       0.19048138       0.23782962       0.50000000 </v>
   <v>       0.33234878       0.23634667       0.50000000 </v>
   <v>       0.47542646       0.23634667       0.50000000 </v>
   <v>       0.61877681       0.23782962       0.50000000 </v>
   <v>       0.76222155       0.23934281       0.50000000 </v>
   <v>       0.90562797       0.23982737       0.50000000 </v>
   <v>       0.04871288       0.38232824       0.50000000 </v>
   <v>       0.19188940       0.38184213       0.50000000 </v>
   <v>       0.33352206       0.38013969       0.50000000 </v>
   <v>       0.47472270       0.37801683       0.50000000 </v>
   <v>       0.61804620       0.38013969       0.50000000 </v>
   <v>       0.76138130       0.38184213       0.50000000 </v>
   <v>       0.90504393       0.38232824       0.50000000 </v>
   <v>       0.04810654       0.52478452       0.50000000 </v>
   <v>       0.19263929       0.52476864       0.50000000 </v>
   <v>       0.33696521       0.52455433       0.50000000 </v>
   <v>       0.47833704       0.52146721       0.50000000 </v>
   <v>       0.61455874       0.52146721       0.50000000 </v>
   <v>       0.75901769       0.52455433       0.50000000 </v>
   <v>       0.90355792       0.52476864       0.50000000 </v>
   <v>       0.04642473       0.66685228       0.50000000 </v>
   <v>       0.19185612       0.66685228       0.50000000 </v>
   <v>       0.33777931       0.66688794       0.50000000 </v>
   <v>       0.48615700       0.66710760       0.50000000 </v>
   <v>       0.75237918       0.66710760       0.50000000 </v>
   <v>       0.90053720       0.66688794       0.50000000 </v>
   <v>       0.04582562       0.80879365       0.50000000 </v>
   <v>       0.19009580       0.80876303       0.50000000 </v>
   <v>       0.33439660       0.80879365       0.50000000 </v>
   <v>       0.47844872       0.80897069       0.50000000 </v>
   <v>       0.62209487       0.81129474       0.50000000 </v>
   <v>       0.76062845       0.81129474       0.50000000 </v>
   <v>       0.90195054       0.80897069       0.50000000 </v>
   <v>       0.04629157       0.95154386       0.50000000 </v>
   <v>       0.18948291       0.95113037       0.50000000 </v>
   <v>       0.33307603       0.95113037       0.50000000 </v>
   <v>       0.47668087       0.95154386       0.50000000 </v>
   <v>       0.62015751       0.95313740       0.50000000 </v>
   <v>       0.76355772       0.95568687       0.50000000 </v>
   <v>       0.90440847       0.95313740       0.50000000 </v>
   <v>       0.56830873       0.56518888       0.50000000 </v>
  </varray>
 </structure>
</modeling>
