<?xml version="1.0" encoding="ISO-8859-1"?>
<modeling>
 <generator>
  <i name="program" type="string">vasp </i>
  <i name="version" type="string">5.4.4.18Apr17-6-g9f103f2a35  </i>
  <i name="subversion" type="string">(build Oct 18 2020 22:16:12) gamma-only         parallel </i>
  <i name="platform" type="string">UA-vaughan-2020a </i>
  <i name="date" type="string">2023 03 21 </i>
  <i name="time" type="string">23:09:18 </i>
 </generator>
 <incar>
  <i type="string" name="PREC">accurate</i>
  <i type="int" name="IALGO">    38</i>
  <i type="logical" name="ADDGRID"> T  </i>
  <i type="int" name="NELMIN">     5</i>
  <i type="int" name="IBRION">    -1</i>
  <i name="EDIFF">      0.00000001</i>
  <i name="EDIFFG">     -0.00000001</i>
  <i type="int" name="NSW">     0</i>
  <i type="int" name="ISIF">     2</i>
  <i name="ENCUT">    500.00000000</i>
  <i type="logical" name="LREAL"> F  </i>
  <i type="int" name="ISMEAR">     0</i>
  <i name="SIGMA">      0.01000000</i>
  <i type="logical" name="LWAVE"> F  </i>
  <i type="logical" name="LCHARG"> F  </i>
  <v type="int" name="KPOINT_BSE">    -1     0     0     0</v>
 </incar>
 <structure name="primitive_cell" >
  <crystal>
   <varray name="basis" >
    <v>      17.59966831       0.00000000       0.00000000 </v>
    <v>      -8.79983416      15.24175986       0.00000000 </v>
    <v>       0.00000000       0.00000000      19.92151445 </v>
   </varray>
   <i name="volume">   5343.94461817 </i>
   <varray name="rec_basis" >
    <v>       0.05681925       0.03280461       0.00000000 </v>
    <v>       0.00000000       0.06560922       0.00000000 </v>
    <v>       0.00000000       0.00000000       0.05019699 </v>
   </varray>
  </crystal>
  <varray name="positions" >
   <v>      -0.00056990       0.00005992      -0.50000000 </v>
   <v>      -0.09559153      -0.04686260      -0.50000000 </v>
   <v>       0.04629157      -0.04845614      -0.50000000 </v>
   <v>       0.04754270       0.09547788      -0.50000000 </v>
   <v>      -0.14173506       0.00214292      -0.50000000 </v>
   <v>       0.14259355       0.14244783      -0.50000000 </v>
   <v>       0.14164706      -0.00128105      -0.50000000 </v>
   <v>      -0.00222825      -0.14386507      -0.50000000 </v>
   <v>      -0.14440994      -0.14241310      -0.50000000 </v>
   <v>       0.00080792       0.14408264      -0.50000000 </v>
   <v>       0.18957833       0.09405657      -0.50000000 </v>
   <v>      -0.09417874       0.09719274      -0.50000000 </v>
   <v>      -0.09804946      -0.19102931      -0.50000000 </v>
   <v>      -0.23644228      -0.04431313      -0.50000000 </v>
   <v>      -0.23937155      -0.18870526      -0.50000000 </v>
   <v>       0.04582562      -0.19120635      -0.50000000 </v>
   <v>       0.19085757       0.23782962      -0.49962381 </v>
   <v>       0.18948291      -0.04886963      -0.50000000 </v>
   <v>       0.04854983       0.23934281      -0.50000000 </v>
   <v>      -0.28359367      -0.13861590      -0.50000000 </v>
   <v>       0.28470221       0.14112972      -0.50000000 </v>
   <v>      -0.14194737       0.14467669      -0.50000000 </v>
   <v>      -0.14938794      -0.28617460      -0.50000000 </v>
   <v>       0.14160898      -0.14408712      -0.50000000 </v>
   <v>       0.14372552       0.28645370      -0.50000000 </v>
   <v>      -0.28469345       0.00214292      -0.50000000 </v>
   <v>      -0.00292766      -0.28629482      -0.50000000 </v>
   <v>       0.28540977       0.28469374      -0.50000000 </v>
   <v>       0.00095476       0.28713011      -0.50000000 </v>
   <v>       0.28492260      -0.00158337      -0.50000000 </v>
   <v>      -0.29741032      -0.28373063      -0.50000000 </v>
   <v>      -0.09946280      -0.33311206      -0.50000000 </v>
   <v>       0.33234878       0.23634667      -0.50000000 </v>
   <v>      -0.23719996       0.09719274      -0.50000000 </v>
   <v>       0.33254182       0.09365506      -0.50000000 </v>
   <v>      -0.09437203       0.23982737      -0.50000000 </v>
   <v>      -0.24762082      -0.33289240      -0.50000000 </v>
   <v>      -0.37790513      -0.18870526      -0.50000000 </v>
   <v>       0.19188940       0.38184213      -0.50000000 </v>
   <v>       0.19009580      -0.19123697      -0.50000000 </v>
   <v>      -0.37984249      -0.04686260      -0.50000000 </v>
   <v>       0.04642473      -0.33314772      -0.50000000 </v>
   <v>       0.33352206       0.38013969      -0.50000000 </v>
   <v>       0.04871288       0.38232824      -0.50000000 </v>
   <v>       0.33307603      -0.04886963      -0.50000000 </v>
   <v>      -0.41489174      -0.28373063      -0.50000000 </v>
   <v>      -0.42657459      -0.14241310      -0.50000000 </v>
   <v>       0.42724431       0.28306005      -0.50000000 </v>
   <v>      -0.14538305      -0.42818375      -0.50000000 </v>
   <v>      -0.28529671       0.14408264      -0.50000000 </v>
   <v>      -0.28954788      -0.42784436      -0.50000000 </v>
   <v>       0.42785608       0.14112972      -0.50000000 </v>
   <v>      -0.14239608       0.28713011      -0.50000000 </v>
   <v>       0.14422690       0.42957551      -0.50000000 </v>
   <v>       0.28730213       0.42918005      -0.50000000 </v>
   <v>       0.14255519      -0.28631818      -0.50000000 </v>
   <v>       0.28573247      -0.14408712      -0.50000000 </v>
   <v>      -0.24098231      -0.47544567      -0.50000000 </v>
   <v>       0.47542646       0.23634667      -0.50000000 </v>
   <v>      -0.23777845       0.23934281      -0.50000000 </v>
   <v>       0.42797654       0.42569726      -0.50000000 </v>
   <v>      -0.42794161       0.00005992      -0.50000000 </v>
   <v>      -0.00071745      -0.42818538      -0.50000000 </v>
   <v>       0.00054479       0.42966101      -0.50000000 </v>
   <v>       0.42850047      -0.00128105      -0.50000000 </v>
   <v>      -0.43169127      -0.43481112      -0.50000000 </v>
   <v>       0.47472270       0.37801683      -0.50000000 </v>
   <v>      -0.09644208      -0.47523136      -0.50000000 </v>
   <v>      -0.38063624       0.09547788      -0.50000000 </v>
   <v>       0.47590681       0.09405657      -0.50000000 </v>
   <v>      -0.09495607       0.38232824      -0.50000000 </v>
   <v>      -0.38544126      -0.47853279      -0.50000000 </v>
   <v>       0.48615700      -0.33289240      -0.50000000 </v>
   <v>       0.47844872      -0.19102931      -0.50000000 </v>
   <v>       0.19263929      -0.47523136      -0.50000000 </v>
   <v>       0.33696521      -0.47544567      -0.50000000 </v>
   <v>       0.19185612      -0.33314772      -0.50000000 </v>
   <v>       0.33439660      -0.19120635      -0.50000000 </v>
   <v>       0.43464191      -0.28617460      -0.50000000 </v>
   <v>      -0.28669350       0.42918005      -0.50000000 </v>
   <v>      -0.42928746       0.28469374      -0.50000000 </v>
   <v>      -0.28584326       0.28645370      -0.50000000 </v>
   <v>       0.28862787      -0.42818375      -0.50000000 </v>
   <v>       0.28806142      -0.28629482      -0.50000000 </v>
   <v>       0.47668087      -0.04845614      -0.50000000 </v>
   <v>       0.47833704      -0.47853279      -0.50000000 </v>
   <v>       0.04810654      -0.47521548      -0.50000000 </v>
   <v>       0.43313209      -0.42784436      -0.50000000 </v>
   <v>       0.42979175      -0.14386507      -0.50000000 </v>
   <v>      -0.43085070       0.42569726      -0.50000000 </v>
   <v>      -0.14322281       0.42957551      -0.50000000 </v>
   <v>      -0.42871714       0.14244783      -0.50000000 </v>
   <v>       0.14396064      -0.42818538      -0.50000000 </v>
   <v>      -0.23861870       0.38184213      -0.50000000 </v>
   <v>      -0.38122319       0.23782962      -0.50000000 </v>
   <v>      -0.38195380       0.38013969      -0.50000000 </v>
   <v>       0.33777931      -0.33311206      -0.50000000 </v>
  </varray>
 </structure>
 <varray name="primitive_index" >
  <v type="int" >        1 </v>
  <v type="int" >       96 </v>
  <v type="int" >       90 </v>
  <v type="int" >       49 </v>
  <v type="int" >        7 </v>
  <v type="int" >        9 </v>
  <v type="int" >        2 </v>
  <v type="int" >       42 </v>
  <v type="int" >       48 </v>
  <v type="int" >        8 </v>
  <v type="int" >       50 </v>
  <v type="int" >       55 </v>
  <v type="int" >       89 </v>
  <v type="int" >       95 </v>
  <v type="int" >       88 </v>
  <v type="int" >       83 </v>
  <v type="int" >       57 </v>
  <v type="int" >       91 </v>
  <v type="int" >       56 </v>
  <v type="int" >       47 </v>
  <v type="int" >       10 </v>
  <v type="int" >       14 </v>
  <v type="int" >       41 </v>
  <v type="int" >       43 </v>
  <v type="int" >       16 </v>
  <v type="int" >        6 </v>
  <v type="int" >       35 </v>
  <v type="int" >       17 </v>
  <v type="int" >       15 </v>
  <v type="int" >        3 </v>
  <v type="int" >       40 </v>
  <v type="int" >       82 </v>
  <v type="int" >       58 </v>
  <v type="int" >       54 </v>
  <v type="int" >       51 </v>
  <v type="int" >       62 </v>
  <v type="int" >       81 </v>
  <v type="int" >       87 </v>
  <v type="int" >       64 </v>
  <v type="int" >       84 </v>
  <v type="int" >       94 </v>
  <v type="int" >       77 </v>
  <v type="int" >       65 </v>
  <v type="int" >       63 </v>
  <v type="int" >       92 </v>
  <v type="int" >       39 </v>
  <v type="int" >       46 </v>
  <v type="int" >       18 </v>
  <v type="int" >       34 </v>
  <v type="int" >       13 </v>
  <v type="int" >       33 </v>
  <v type="int" >       11 </v>
  <v type="int" >       21 </v>
  <v type="int" >       23 </v>
  <v type="int" >       24 </v>
  <v type="int" >       36 </v>
  <v type="int" >       44 </v>
  <v type="int" >       75 </v>
  <v type="int" >       59 </v>
  <v type="int" >       61 </v>
  <v type="int" >       25 </v>
  <v type="int" >        5 </v>
  <v type="int" >       29 </v>
  <v type="int" >       22 </v>
  <v type="int" >        4 </v>
  <v type="int" >       97 </v>
  <v type="int" >       66 </v>
  <v type="int" >       76 </v>
  <v type="int" >       53 </v>
  <v type="int" >       52 </v>
  <v type="int" >       69 </v>
  <v type="int" >       74 </v>
  <v type="int" >       80 </v>
  <v type="int" >       86 </v>
  <v type="int" >       71 </v>
  <v type="int" >       72 </v>
  <v type="int" >       78 </v>
  <v type="int" >       85 </v>
  <v type="int" >       38 </v>
  <v type="int" >       27 </v>
  <v type="int" >       19 </v>
  <v type="int" >       20 </v>
  <v type="int" >       31 </v>
  <v type="int" >       37 </v>
  <v type="int" >       93 </v>
  <v type="int" >       73 </v>
  <v type="int" >       70 </v>
  <v type="int" >       32 </v>
  <v type="int" >       45 </v>
  <v type="int" >       26 </v>
  <v type="int" >       28 </v>
  <v type="int" >       12 </v>
  <v type="int" >       30 </v>
  <v type="int" >       68 </v>
  <v type="int" >       60 </v>
  <v type="int" >       67 </v>
  <v type="int" >       79 </v>
 </varray>
 <kpoints>
  <generation param="Gamma">
   <v type="int" name="divisions">       1        1        1 </v>
   <v name="usershift">      0.00000000       0.00000000       0.00000000 </v>
   <v name="genvec1">      1.00000000      -0.00000000       0.00000000 </v>
   <v name="genvec2">      0.00000000       1.00000000       0.00000000 </v>
   <v name="genvec3">      0.00000000       0.00000000       1.00000000 </v>
   <v name="shift">      0.00000000       0.00000000       0.00000000 </v>
  </generation>
  <varray name="kpointlist" >
   <v>       0.00000000       0.00000000       0.00000000 </v>
  </varray>
  <varray name="weights" >
   <v>       1.00000000 </v>
  </varray>
 </kpoints>
 <parameters>
  <separator name="general" >
   <i type="string" name="SYSTEM">unknown system</i>
   <i type="logical" name="LCOMPAT"> F  </i>
  </separator>
  <separator name="electronic" >
   <i type="string" name="PREC">accura</i>
   <i name="ENMAX">    500.00000000</i>
   <i name="ENAUG">    644.87300000</i>
   <i name="EDIFF">      0.00000001</i>
   <i type="int" name="IALGO">    38</i>
   <i type="int" name="IWAVPR">    10</i>
   <i type="int" name="NBANDS">   244</i>
   <i name="NELECT">    388.00000000</i>
   <i type="int" name="TURBO">     0</i>
   <i type="int" name="IRESTART">     0</i>
   <i type="int" name="NREBOOT">     0</i>
   <i type="int" name="NMIN">     0</i>
   <i name="EREF">      0.00000000</i>
   <separator name="electronic smearing" >
    <i type="int" name="ISMEAR">     0</i>
    <i name="SIGMA">      0.01000000</i>
    <i name="KSPACING">      0.50000000</i>
    <i type="logical" name="KGAMMA"> T  </i>
   </separator>
   <separator name="electronic projectors" >
    <i type="logical" name="LREAL"> F  </i>
    <v name="ROPT">      0.00000000      0.00000000      0.00000000</v>
    <i type="int" name="LMAXPAW">  -100</i>
    <i type="int" name="LMAXMIX">     2</i>
    <i type="logical" name="NLSPLINE"> F  </i>
   </separator>
   <separator name="electronic startup" >
    <i type="int" name="ISTART">     0</i>
    <i type="int" name="ICHARG">     2</i>
    <i type="int" name="INIWAV">     1</i>
   </separator>
   <separator name="electronic spin" >
    <i type="int" name="ISPIN">     1</i>
    <i type="logical" name="LNONCOLLINEAR"> F  </i>
    <v name="MAGMOM">      1.00000000      1.00000000      1.00000000      1.00000000      1.00000000      1.00000000      1.00000000      1.00000000      1.00000000      1.00000000      1.00000000      1.00000000      1.00000000      1.00000000      1.00000000      1.00000000      1.00000000      1.00000000      1.00000000      1.00000000
      1.00000000      1.00000000      1.00000000      1.00000000      1.00000000      1.00000000      1.00000000      1.00000000      1.00000000      1.00000000      1.00000000      1.00000000      1.00000000      1.00000000      1.00000000      1.00000000      1.00000000      1.00000000      1.00000000      1.00000000
      1.00000000      1.00000000      1.00000000      1.00000000      1.00000000      1.00000000      1.00000000      1.00000000      1.00000000      1.00000000      1.00000000      1.00000000      1.00000000      1.00000000      1.00000000      1.00000000      1.00000000      1.00000000      1.00000000      1.00000000
      1.00000000      1.00000000      1.00000000      1.00000000      1.00000000      1.00000000      1.00000000      1.00000000      1.00000000      1.00000000      1.00000000      1.00000000      1.00000000      1.00000000      1.00000000      1.00000000      1.00000000      1.00000000      1.00000000      1.00000000
      1.00000000      1.00000000      1.00000000      1.00000000      1.00000000      1.00000000      1.00000000      1.00000000      1.00000000      1.00000000      1.00000000      1.00000000      1.00000000      1.00000000      1.00000000      1.00000000      1.00000000</v>
    <i name="NUPDOWN">     -1.00000000</i>
    <i type="logical" name="LSORBIT"> F  </i>
    <v name="SAXIS">      0.00000000      0.00000000      1.00000000</v>
    <i type="logical" name="LSPIRAL"> F  </i>
    <v name="QSPIRAL">      0.00000000      0.00000000      0.00000000</v>
    <i type="logical" name="LZEROZ"> F  </i>
   </separator>
   <separator name="electronic exchange-correlation" >
    <i type="logical" name="LASPH"> F  </i>
    <i type="logical" name="LMETAGGA"> F  </i>
   </separator>
   <separator name="electronic convergence" >
    <i type="int" name="NELM">    60</i>
    <i type="int" name="NELMDL">    -5</i>
    <i type="int" name="NELMIN">     5</i>
    <i name="ENINI">    500.00000000</i>
    <separator name="electronic convergence detail" >
     <i type="logical" name="LDIAG"> T  </i>
     <i type="logical" name="LSUBROT"> F  </i>
     <i name="WEIMIN">      0.00000000</i>
     <i name="EBREAK">      0.00000000</i>
     <i name="DEPER">      0.30000000</i>
     <i type="int" name="NRMM">     4</i>
     <i name="TIME">      0.40000000</i>
    </separator>
   </separator>
   <separator name="electronic mixer" >
    <i name="AMIX">      0.40000000</i>
    <i name="BMIX">      1.00000000</i>
    <i name="AMIN">      0.10000000</i>
    <i name="AMIX_MAG">      1.60000000</i>
    <i name="BMIX_MAG">      1.00000000</i>
    <separator name="electronic mixer details" >
     <i type="int" name="IMIX">     4</i>
     <i type="logical" name="MIXFIRST"> F  </i>
     <i type="int" name="MAXMIX">   -45</i>
     <i name="WC">    100.00000000</i>
     <i type="int" name="INIMIX">     1</i>
     <i type="int" name="MIXPRE">     1</i>
     <i type="int" name="MREMOVE">     5</i>
    </separator>
   </separator>
   <separator name="electronic dipolcorrection" >
    <i type="logical" name="LDIPOL"> F  </i>
    <i type="logical" name="LMONO"> F  </i>
    <i type="int" name="IDIPOL">     0</i>
    <i name="EPSILON">      1.00000000</i>
    <v name="DIPOL">   -100.00000000   -100.00000000   -100.00000000</v>
    <i name="EFIELD">      0.00000000</i>
   </separator>
  </separator>
  <separator name="grids" >
   <i type="int" name="NGX">   128</i>
   <i type="int" name="NGY">   128</i>
   <i type="int" name="NGZ">   150</i>
   <i type="int" name="NGXF">   256</i>
   <i type="int" name="NGYF">   256</i>
   <i type="int" name="NGZF">   300</i>
   <i type="logical" name="ADDGRID"> T  </i>
  </separator>
  <separator name="ionic" >
   <i type="int" name="NSW">     0</i>
   <i type="int" name="IBRION">    -1</i>
   <i type="int" name="MDALGO">     0</i>
   <i type="int" name="ISIF">     2</i>
   <i name="PSTRESS">      0.00000000</i>
   <i name="EDIFFG">     -0.00000001</i>
   <i type="int" name="NFREE">     0</i>
   <i name="POTIM">      0.50000000</i>
   <i name="SMASS">     -3.00000000</i>
   <i name="SCALEE">      1.00000000</i>
  </separator>
  <separator name="ionic md" >
   <i name="TEBEG">      0.00010000</i>
   <i name="TEEND">      0.00010000</i>
   <i type="int" name="NBLOCK">     1</i>
   <i type="int" name="KBLOCK">     1</i>
   <i type="int" name="NPACO">   256</i>
   <i name="APACO">     16.00000000</i>
  </separator>
  <separator name="symmetry" >
   <i type="int" name="ISYM">     2</i>
   <i name="SYMPREC">      0.00001000</i>
  </separator>
  <separator name="dos" >
   <i type="int" name="LORBIT">     0</i>
   <v name="RWIGS">     -1.00000000     -1.00000000     -1.00000000</v>
   <i type="int" name="NEDOS">   301</i>
   <i name="EMIN">     10.00000000</i>
   <i name="EMAX">    -10.00000000</i>
   <i name="EFERMI">      0.00000000</i>
  </separator>
  <separator name="writing" >
   <i type="int" name="NWRITE">     2</i>
   <i type="logical" name="LWAVE"> F  </i>
   <i type="logical" name="LDOWNSAMPLE"> F  </i>
   <i type="logical" name="LCHARG"> F  </i>
   <i type="logical" name="LPARD"> F  </i>
   <i type="logical" name="LVTOT"> F  </i>
   <i type="logical" name="LVHAR"> F  </i>
   <i type="logical" name="LELF"> F  </i>
   <i type="logical" name="LOPTICS"> F  </i>
   <v name="STM">      0.00000000      0.00000000      0.00000000      0.00000000      0.00000000      0.00000000      0.00000000</v>
  </separator>
  <separator name="performance" >
   <i type="int" name="NPAR">     4</i>
   <i type="int" name="NSIM">     4</i>
   <i type="int" name="NBLK">    -1</i>
   <i type="logical" name="LPLANE"> T  </i>
   <i type="logical" name="LSCALAPACK"> T  </i>
   <i type="logical" name="LSCAAWARE"> F  </i>
   <i type="logical" name="LSCALU"> F  </i>
   <i type="logical" name="LASYNC"> F  </i>
   <i type="logical" name="LORBITALREAL"> F  </i>
  </separator>
  <separator name="miscellaneous" >
   <i type="int" name="IDIOT">     3</i>
   <i type="int" name="ISPECIAL">     0</i>
   <i type="logical" name="LMUSIC"> F  </i>
   <v name="POMASS">     10.81100000     14.00100000     12.01100000</v>
   <v name="DARWINR">      0.00000000      0.00000000      0.00000000</v>
   <v name="DARWINV">      1.00000000      1.00000000      1.00000000</v>
   <i type="logical" name="LCORR"> T  </i>
  </separator>
  <i type="logical" name="GGA_COMPAT"> T  </i>
  <i type="logical" name="LBERRY"> F  </i>
  <i type="int" name="ICORELEVEL">     0</i>
  <i type="logical" name="LDAU"> F  </i>
  <i type="int" name="I_CONSTRAINED_M">     0</i>
  <separator name="electronic exchange-correlation" >
   <i type="string" name="GGA">--</i>
   <i type="int" name="VOSKOWN">     0</i>
   <i type="logical" name="LHFCALC"> F  </i>
   <i type="string" name="PRECFOCK"></i>
   <i type="logical" name="LSYMGRAD"> F  </i>
   <i type="logical" name="LHFONE"> F  </i>
   <i type="logical" name="LRHFCALC"> F  </i>
   <i type="logical" name="LTHOMAS"> F  </i>
   <i type="logical" name="LMODELHF"> F  </i>
   <i name="ENCUT4O">     -1.00000000</i>
   <i type="int" name="EXXOEP">     0</i>
   <i type="int" name="FOURORBIT">     0</i>
   <i name="AEXX">      0.00000000</i>
   <i name="HFALPHA">      0.00000000</i>
   <i name="MCALPHA">      0.00000000</i>
   <i name="ALDAX">      1.00000000</i>
   <i name="AGGAX">      1.00000000</i>
   <i name="ALDAC">      1.00000000</i>
   <i name="AGGAC">      1.00000000</i>
   <i type="int" name="NKREDX">     1</i>
   <i type="int" name="NKREDY">     1</i>
   <i type="int" name="NKREDZ">     1</i>
   <i type="logical" name="SHIFTRED"> F  </i>
   <i type="logical" name="ODDONLY"> F  </i>
   <i type="logical" name="EVENONLY"> F  </i>
   <i type="int" name="LMAXFOCK">     0</i>
   <i type="int" name="NMAXFOCKAE">     0</i>
   <i type="logical" name="LFOCKAEDFT"> F  </i>
   <i name="HFSCREEN">      0.00000000</i>
   <i name="HFSCREENC">      0.00000000</i>
   <i type="int" name="NBANDSGWLOW">     0</i>
  </separator>
  <separator name="vdW DFT" >
   <i type="logical" name="LUSE_VDW"> F  </i>
   <i name="Zab_VDW">     -0.84910000</i>
   <i name="PARAM1">      0.12340000</i>
   <i name="PARAM2">      1.00000000</i>
   <i name="PARAM3">      0.00000000</i>
  </separator>
  <separator name="model GW" >
   <i type="int" name="MODEL_GW">     0</i>
   <i name="MODEL_EPS0">     33.05532754</i>
   <i name="MODEL_ALPHA">      1.00000000</i>
  </separator>
  <separator name="linear response parameters" >
   <i type="logical" name="LEPSILON"> F  </i>
   <i type="logical" name="LRPA"> F  </i>
   <i type="logical" name="LNABLA"> F  </i>
   <i type="logical" name="LVEL"> F  </i>
   <i type="int" name="KINTER">     0</i>
   <i name="CSHIFT">      0.10000000</i>
   <i name="OMEGAMAX">     -1.00000000</i>
   <i name="DEG_THRESHOLD">      0.00200000</i>
   <i name="RTIME">     -0.10000000</i>
   <i name="WPLASMAI">      0.00000000</i>
   <v name="DFIELD">      0.00000000      0.00000000      0.00000000</v>
   <v name="WPLASMA">      0.00000000      0.00000000      0.00000000      0.00000000      0.00000000      0.00000000      0.00000000      0.00000000      0.00000000</v>
  </separator>
  <separator name="orbital magnetization" >
   <i type="logical" name="NUCIND"> F  </i>
   <v name="MAGPOS">      0.00000000      0.00000000      0.00000000</v>
   <i type="logical" name="LNICSALL"> T  </i>
   <i type="logical" name="ORBITALMAG"> F  </i>
   <i type="logical" name="LMAGBLOCH"> F  </i>
   <i type="logical" name="LCHIMAG"> F  </i>
   <i type="logical" name="LGAUGE"> T  </i>
   <i type="int" name="MAGATOM">     0</i>
   <v name="MAGDIPOL">      0.00000000      0.00000000      0.00000000</v>
   <v name="AVECCONST">      0.00000000      0.00000000      0.00000000</v>
  </separator>
  <separator name="response functions" >
   <i type="logical" name="LADDER"> F  </i>
   <i type="logical" name="LRPAFORCE"> F  </i>
   <i type="logical" name="LFXC"> F  </i>
   <i type="logical" name="LHARTREE"> T  </i>
   <i type="int" name="IBSE">     0</i>
   <v type="int" name="KPOINT">    -1     0     0     0</v>
   <i type="logical" name="LTCTE"> F  </i>
   <i type="logical" name="LTETE"> F  </i>
   <i type="logical" name="LTRIPLET"> F  </i>
   <i type="logical" name="LFXCEPS"> F  </i>
   <i type="logical" name="LFXHEG"> F  </i>
   <i type="int" name="NATURALO">     2</i>
   <i type="logical" name="L2ORDER"> F  </i>
   <i type="logical" name="LMP2LT"> F  </i>
   <i type="logical" name="LUSEW"> F  </i>
   <i name="ENCUTGW">     -2.00000000</i>
   <i name="ENCUTGWSOFT">     -2.00000000</i>
   <i name="ENCUTLF">     -1.00000000</i>
   <i type="int" name="LMAXMP2">    -1</i>
   <i name="SCISSOR">      0.00000000</i>
   <i type="int" name="NOMEGA">     0</i>
   <i type="int" name="NOMEGAR">     0</i>
   <i type="int" name="NBANDSGW">    -1</i>
   <i type="int" name="NBANDSO">    -1</i>
   <i type="int" name="NBANDSV">    -1</i>
   <i type="int" name="NELM">     1</i>
   <i type="int" name="NELMHF">     1</i>
   <i type="int" name="DIM">     3</i>
   <i type="int" name="ANTIRES">     0</i>
   <i name="OMEGAMAX">    -30.00000000</i>
   <i name="OMEGAMIN">    -30.00000000</i>
   <i name="OMEGATL">   -200.00000000</i>
   <i type="int" name="OMEGAGRID">   140</i>
   <i name="CSHIFT">     -0.10000000</i>
   <i type="logical" name="SELFENERGY"> F  </i>
   <i type="logical" name="LSPECTRAL"> F  </i>
   <i type="logical" name="LSPECTRALGW"> F  </i>
   <i type="logical" name="LSINGLES"> F  </i>
   <i type="logical" name="LFERMIGW"> F  </i>
   <i type="logical" name="ODDONLYGW"> F  </i>
   <i type="logical" name="EVENONLYGW"> F  </i>
   <i type="int" name="NKREDLFX">     1</i>
   <i type="int" name="NKREDLFY">     1</i>
   <i type="int" name="NKREDLFZ">     1</i>
   <i type="int" name="MAXMEM">  2800</i>
   <i type="int" name="TELESCOPE">     0</i>
   <i type="int" name="TAUPAR">     1</i>
   <i type="int" name="OMEGAPAR">    -1</i>
   <i name="LAMBDA">      1.00000000</i>
  </separator>
  <separator name="External order field" >
   <i name="OFIELD_KAPPA">      0.00000000</i>
   <v name="OFIELD_K">      0.00000000      0.00000000      0.00000000</v>
   <i name="OFIELD_Q6_NEAR">      0.00000000</i>
   <i name="OFIELD_Q6_FAR">      0.00000000</i>
   <i name="OFIELD_A">      0.00000000</i>
  </separator>
 </parameters>
 <atominfo>
  <atoms>      97 </atoms>
  <types>       3 </types>
  <array name="atoms" >
   <dimension dim="1">ion</dimension>
   <field type="string">element</field>
   <field type="int">atomtype</field>
   <set>
    <rc><c>B </c><c>   1</c></rc>
    <rc><c>B </c><c>   1</c></rc>
    <rc><c>B </c><c>   1</c></rc>
    <rc><c>B </c><c>   1</c></rc>
    <rc><c>B </c><c>   1</c></rc>
    <rc><c>B </c><c>   1</c></rc>
    <rc><c>B </c><c>   1</c></rc>
    <rc><c>B </c><c>   1</c></rc>
    <rc><c>B </c><c>   1</c></rc>
    <rc><c>B </c><c>   1</c></rc>
    <rc><c>B </c><c>   1</c></rc>
    <rc><c>B </c><c>   1</c></rc>
    <rc><c>B </c><c>   1</c></rc>
    <rc><c>B </c><c>   1</c></rc>
    <rc><c>B </c><c>   1</c></rc>
    <rc><c>B </c><c>   1</c></rc>
    <rc><c>B </c><c>   1</c></rc>
    <rc><c>B </c><c>   1</c></rc>
    <rc><c>B </c><c>   1</c></rc>
    <rc><c>B </c><c>   1</c></rc>
    <rc><c>B </c><c>   1</c></rc>
    <rc><c>B </c><c>   1</c></rc>
    <rc><c>B </c><c>   1</c></rc>
    <rc><c>B </c><c>   1</c></rc>
    <rc><c>B </c><c>   1</c></rc>
    <rc><c>B </c><c>   1</c></rc>
    <rc><c>B </c><c>   1</c></rc>
    <rc><c>B </c><c>   1</c></rc>
    <rc><c>B </c><c>   1</c></rc>
    <rc><c>B </c><c>   1</c></rc>
    <rc><c>B </c><c>   1</c></rc>
    <rc><c>B </c><c>   1</c></rc>
    <rc><c>B </c><c>   1</c></rc>
    <rc><c>B </c><c>   1</c></rc>
    <rc><c>B </c><c>   1</c></rc>
    <rc><c>B </c><c>   1</c></rc>
    <rc><c>B </c><c>   1</c></rc>
    <rc><c>B </c><c>   1</c></rc>
    <rc><c>B </c><c>   1</c></rc>
    <rc><c>B </c><c>   1</c></rc>
    <rc><c>B </c><c>   1</c></rc>
    <rc><c>B </c><c>   1</c></rc>
    <rc><c>B </c><c>   1</c></rc>
    <rc><c>B </c><c>   1</c></rc>
    <rc><c>B </c><c>   1</c></rc>
    <rc><c>B </c><c>   1</c></rc>
    <rc><c>B </c><c>   1</c></rc>
    <rc><c>B </c><c>   1</c></rc>
    <rc><c>N </c><c>   2</c></rc>
    <rc><c>N </c><c>   2</c></rc>
    <rc><c>N </c><c>   2</c></rc>
    <rc><c>N </c><c>   2</c></rc>
    <rc><c>N </c><c>   2</c></rc>
    <rc><c>N </c><c>   2</c></rc>
    <rc><c>N </c><c>   2</c></rc>
    <rc><c>N </c><c>   2</c></rc>
    <rc><c>N </c><c>   2</c></rc>
    <rc><c>N </c><c>   2</c></rc>
    <rc><c>N </c><c>   2</c></rc>
    <rc><c>N </c><c>   2</c></rc>
    <rc><c>N </c><c>   2</c></rc>
    <rc><c>N </c><c>   2</c></rc>
    <rc><c>N </c><c>   2</c></rc>
    <rc><c>N </c><c>   2</c></rc>
    <rc><c>N </c><c>   2</c></rc>
    <rc><c>N </c><c>   2</c></rc>
    <rc><c>N </c><c>   2</c></rc>
    <rc><c>N </c><c>   2</c></rc>
    <rc><c>N </c><c>   2</c></rc>
    <rc><c>N </c><c>   2</c></rc>
    <rc><c>N </c><c>   2</c></rc>
    <rc><c>N </c><c>   2</c></rc>
    <rc><c>N </c><c>   2</c></rc>
    <rc><c>N </c><c>   2</c></rc>
    <rc><c>N </c><c>   2</c></rc>
    <rc><c>N </c><c>   2</c></rc>
    <rc><c>N </c><c>   2</c></rc>
    <rc><c>N </c><c>   2</c></rc>
    <rc><c>N </c><c>   2</c></rc>
    <rc><c>N </c><c>   2</c></rc>
    <rc><c>N </c><c>   2</c></rc>
    <rc><c>N </c><c>   2</c></rc>
    <rc><c>N </c><c>   2</c></rc>
    <rc><c>N </c><c>   2</c></rc>
    <rc><c>N </c><c>   2</c></rc>
    <rc><c>N </c><c>   2</c></rc>
    <rc><c>N </c><c>   2</c></rc>
    <rc><c>N </c><c>   2</c></rc>
    <rc><c>N </c><c>   2</c></rc>
    <rc><c>N </c><c>   2</c></rc>
    <rc><c>N </c><c>   2</c></rc>
    <rc><c>N </c><c>   2</c></rc>
    <rc><c>N </c><c>   2</c></rc>
    <rc><c>N </c><c>   2</c></rc>
    <rc><c>N </c><c>   2</c></rc>
    <rc><c>N </c><c>   2</c></rc>
    <rc><c>C </c><c>   3</c></rc>
   </set>
  </array>
  <array name="atomtypes" >
   <dimension dim="1">type</dimension>
   <field type="int">atomspertype</field>
   <field type="string">element</field>
   <field>mass</field>
   <field>valence</field>
   <field type="string">pseudopotential</field>
   <set>
    <rc><c>  48</c><c>B </c><c>     10.81100000</c><c>      3.00000000</c><c>  PAW_PBE B 06Sep2000                   </c></rc>
    <rc><c>  48</c><c>N </c><c>     14.00100000</c><c>      5.00000000</c><c>  PAW_PBE N 08Apr2002                   </c></rc>
    <rc><c>   1</c><c>C </c><c>     12.01100000</c><c>      4.00000000</c><c>  PAW_PBE C 08Apr2002                   </c></rc>
   </set>
  </array>
 </atominfo>
 <structure name="initialpos" >
  <crystal>
   <varray name="basis" >
    <v>      17.59966831       0.00000000       0.00000000 </v>
    <v>      -8.79983416      15.24175986       0.00000000 </v>
    <v>       0.00000000       0.00000000      19.92151445 </v>
   </varray>
   <i name="volume">   5343.94461817 </i>
   <varray name="rec_basis" >
    <v>       0.05681925       0.03280461       0.00000000 </v>
    <v>       0.00000000       0.06560922       0.00000000 </v>
    <v>       0.00000000       0.00000000       0.05019699 </v>
   </varray>
  </crystal>
  <varray name="positions" >
   <v>       0.99943010       0.00005992       0.50000000 </v>
   <v>       0.14164706       0.99871895       0.50000000 </v>
   <v>       0.28492260       0.99841663       0.50000000 </v>
   <v>       0.42850047       0.99871895       0.50000000 </v>
   <v>       0.57205839       0.00005992       0.50000000 </v>
   <v>       0.71530655       0.00214292       0.50000000 </v>
   <v>       0.85826494       0.00214292       0.50000000 </v>
   <v>       0.00080792       0.14408264       0.50000000 </v>
   <v>       0.14259355       0.14244783       0.50000000 </v>
   <v>       0.28470221       0.14112972       0.50000000 </v>
   <v>       0.42785608       0.14112972       0.50000000 </v>
   <v>       0.57128286       0.14244783       0.50000000 </v>
   <v>       0.71470329       0.14408264       0.50000000 </v>
   <v>       0.85805263       0.14467669       0.50000000 </v>
   <v>       0.00095476       0.28713011       0.50000000 </v>
   <v>       0.14372552       0.28645370       0.50000000 </v>
   <v>       0.28540977       0.28469374       0.50000000 </v>
   <v>       0.42724431       0.28306005       0.50000000 </v>
   <v>       0.57071254       0.28469374       0.50000000 </v>
   <v>       0.71415674       0.28645370       0.50000000 </v>
   <v>       0.85760392       0.28713011       0.50000000 </v>
   <v>       0.00054479       0.42966101       0.50000000 </v>
   <v>       0.14422690       0.42957551       0.50000000 </v>
   <v>       0.28730213       0.42918005       0.50000000 </v>
   <v>       0.42797654       0.42569726       0.50000000 </v>
   <v>       0.56914930       0.42569726       0.50000000 </v>
   <v>       0.71330650       0.42918005       0.50000000 </v>
   <v>       0.85677719       0.42957551       0.50000000 </v>
   <v>       0.99928255       0.57181462       0.50000000 </v>
   <v>       0.14396064       0.57181462       0.50000000 </v>
   <v>       0.28862787       0.57181625       0.50000000 </v>
   <v>       0.43313209       0.57215564       0.50000000 </v>
   <v>       0.71045212       0.57215564       0.50000000 </v>
   <v>       0.85461695       0.57181625       0.50000000 </v>
   <v>       0.99707234       0.71370518       0.50000000 </v>
   <v>       0.14255519       0.71368182       0.50000000 </v>
   <v>       0.28806142       0.71370518       0.50000000 </v>
   <v>       0.43464191       0.71382540       0.50000000 </v>
   <v>       0.58510826       0.71626937       0.50000000 </v>
   <v>       0.70258968       0.71626937       0.50000000 </v>
   <v>       0.85061206       0.71382540       0.50000000 </v>
   <v>       0.99777175       0.85613493       0.50000000 </v>
   <v>       0.14160898       0.85591288       0.50000000 </v>
   <v>       0.28573247       0.85591288       0.50000000 </v>
   <v>       0.42979175       0.85613493       0.50000000 </v>
   <v>       0.57342541       0.85758690       0.50000000 </v>
   <v>       0.71640633       0.86138410       0.50000000 </v>
   <v>       0.85559006       0.85758690       0.50000000 </v>
   <v>       0.04754270       0.09547788       0.50000000 </v>
   <v>       0.18957833       0.09405657       0.50000000 </v>
   <v>       0.33254182       0.09365506       0.50000000 </v>
   <v>       0.47590681       0.09405657       0.50000000 </v>
   <v>       0.61936376       0.09547788       0.50000000 </v>
   <v>       0.76280004       0.09719274       0.50000000 </v>
   <v>       0.90582126       0.09719274       0.50000000 </v>
   <v>       0.04854983       0.23934281       0.50000000 </v>
   <v>       0.19085757       0.23782962       0.50037619 </v>
   <v>       0.33234878       0.23634667       0.50000000 </v>
   <v>       0.47542646       0.23634667       0.50000000 </v>
   <v>       0.61877681       0.23782962       0.50000000 </v>
   <v>       0.76222155       0.23934281       0.50000000 </v>
   <v>       0.90562797       0.23982737       0.50000000 </v>
   <v>       0.04871288       0.38232824       0.50000000 </v>
   <v>       0.19188940       0.38184213       0.50000000 </v>
   <v>       0.33352206       0.38013969       0.50000000 </v>
   <v>       0.47472270       0.37801683       0.50000000 </v>
   <v>       0.61804620       0.38013969       0.50000000 </v>
   <v>       0.76138130       0.38184213       0.50000000 </v>
   <v>       0.90504393       0.38232824       0.50000000 </v>
   <v>       0.04810654       0.52478452       0.50000000 </v>
   <v>       0.19263929       0.52476864       0.50000000 </v>
   <v>       0.33696521       0.52455433       0.50000000 </v>
   <v>       0.47833704       0.52146721       0.50000000 </v>
   <v>       0.61455874       0.52146721       0.50000000 </v>
   <v>       0.75901769       0.52455433       0.50000000 </v>
   <v>       0.90355792       0.52476864       0.50000000 </v>
   <v>       0.04642473       0.66685228       0.50000000 </v>
   <v>       0.19185612       0.66685228       0.50000000 </v>
   <v>       0.33777931       0.66688794       0.50000000 </v>
   <v>       0.48615700       0.66710760       0.50000000 </v>
   <v>       0.75237918       0.66710760       0.50000000 </v>
   <v>       0.90053720       0.66688794       0.50000000 </v>
   <v>       0.04582562       0.80879365       0.50000000 </v>
   <v>       0.19009580       0.80876303       0.50000000 </v>
   <v>       0.33439660       0.80879365       0.50000000 </v>
   <v>       0.47844872       0.80897069       0.50000000 </v>
   <v>       0.62209487       0.81129474       0.50000000 </v>
   <v>       0.76062845       0.81129474       0.50000000 </v>
   <v>       0.90195054       0.80897069       0.50000000 </v>
   <v>       0.04629157       0.95154386       0.50000000 </v>
   <v>       0.18948291       0.95113037       0.50000000 </v>
   <v>       0.33307603       0.95113037       0.50000000 </v>
   <v>       0.47668087       0.95154386       0.50000000 </v>
   <v>       0.62015751       0.95313740       0.50000000 </v>
   <v>       0.76355772       0.95568687       0.50000000 </v>
   <v>       0.90440847       0.95313740       0.50000000 </v>
   <v>       0.56830873       0.56518888       0.50000000 </v>
  </varray>
 </structure>
 <calculation>
  <scstep>
   <time name="dav">    2.35    2.37</time>
   <time name="total">    2.72    2.81</time>
   <energy>
    <i name="alphaZ">    156.50993408 </i>
    <i name="ewald">  58206.77906233 </i>
    <i name="hartreedc"> -70374.19862554 </i>
    <i name="XCdc">   1302.10878948 </i>
    <i name="pawpsdc">  12033.28670802 </i>
    <i name="pawaedc"> -12049.96799276 </i>
    <i name="eentropy">     -0.00000000 </i>
    <i name="bandstr">   -904.57961307 </i>
    <i name="atom">  16260.93880140 </i>
    <i name="e_fr_energy">   4630.87706393 </i>
    <i name="e_wo_entrp">   4630.87706393 </i>
    <i name="e_0_energy">   4630.87706393 </i>
   </energy>
  </scstep>
  <scstep>
   <time name="dav">    2.99    3.03</time>
   <time name="total">    2.99    3.03</time>
   <energy>
    <i name="e_fr_energy">    216.73283844 </i>
    <i name="e_wo_entrp">    216.73283844 </i>
    <i name="e_0_energy">    216.73283844 </i>
   </energy>
  </scstep>
  <scstep>
   <time name="dav">    2.47    2.50</time>
   <time name="total">    2.47    2.51</time>
   <energy>
    <i name="e_fr_energy">   -867.46410402 </i>
    <i name="e_wo_entrp">   -867.46410402 </i>
    <i name="e_0_energy">   -867.46410402 </i>
   </energy>
  </scstep>
  <scstep>
   <time name="dav">    2.48    2.52</time>
   <time name="total">    2.48    2.52</time>
   <energy>
    <i name="e_fr_energy">   -934.19470845 </i>
    <i name="e_wo_entrp">   -934.19470845 </i>
    <i name="e_0_energy">   -934.19470845 </i>
   </energy>
  </scstep>
  <scstep>
   <time name="dav">    2.50    2.53</time>
   <time name="total">    2.75    2.78</time>
   <energy>
    <i name="e_fr_energy">   -935.77626598 </i>
    <i name="e_wo_entrp">   -935.77626598 </i>
    <i name="e_0_energy">   -935.77626598 </i>
   </energy>
  </scstep>
  <scstep>
   <time name="dav">    2.31    2.33</time>
   <time name="total">    2.91    2.95</time>
   <energy>
    <i name="e_fr_energy">   -858.73585984 </i>
    <i name="e_wo_entrp">   -858.73585984 </i>
    <i name="e_0_energy">   -858.73585984 </i>
   </energy>
  </scstep>
  <scstep>
   <time name="dav">    2.35    2.37</time>
   <time name="total">    2.96    2.99</time>
   <energy>
    <i name="e_fr_energy">   -850.19495130 </i>
    <i name="e_wo_entrp">   -850.19495130 </i>
    <i name="e_0_energy">   -850.19495130 </i>
   </energy>
  </scstep>
  <scstep>
   <time name="dav">    2.28    2.31</time>
   <time name="total">    2.90    2.93</time>
   <energy>
    <i name="e_fr_energy">   -845.92714199 </i>
    <i name="e_wo_entrp">   -845.92714105 </i>
    <i name="e_0_energy">   -845.92714152 </i>
   </energy>
  </scstep>
  <scstep>
   <time name="dav">    2.30    2.32</time>
   <time name="total">    2.91    2.94</time>
   <energy>
    <i name="e_fr_energy">   -845.80147809 </i>
    <i name="e_wo_entrp">   -845.80147809 </i>
    <i name="e_0_energy">   -845.80147809 </i>
   </energy>
  </scstep>
  <scstep>
   <time name="dav">    2.35    2.37</time>
   <time name="total">    2.95    3.00</time>
   <energy>
    <i name="e_fr_energy">   -845.64028025 </i>
    <i name="e_wo_entrp">   -845.64028025 </i>
    <i name="e_0_energy">   -845.64028025 </i>
   </energy>
  </scstep>
  <scstep>
   <time name="dav">    2.31    2.33</time>
   <time name="total">    2.92    2.97</time>
   <energy>
    <i name="e_fr_energy">   -845.59021128 </i>
    <i name="e_wo_entrp">   -845.59021128 </i>
    <i name="e_0_energy">   -845.59021128 </i>
   </energy>
  </scstep>
  <scstep>
   <time name="dav">    2.23    2.25</time>
   <time name="total">    2.84    2.88</time>
   <energy>
    <i name="e_fr_energy">   -845.57741841 </i>
    <i name="e_wo_entrp">   -845.57741841 </i>
    <i name="e_0_energy">   -845.57741841 </i>
   </energy>
  </scstep>
  <scstep>
   <time name="dav">    2.23    2.25</time>
   <time name="total">    2.84    2.89</time>
   <energy>
    <i name="e_fr_energy">   -845.57668941 </i>
    <i name="e_wo_entrp">   -845.57668941 </i>
    <i name="e_0_energy">   -845.57668941 </i>
   </energy>
  </scstep>
  <scstep>
   <time name="dav">    2.21    2.23</time>
   <time name="total">    2.82    2.86</time>
   <energy>
    <i name="e_fr_energy">   -845.58227750 </i>
    <i name="e_wo_entrp">   -845.58227750 </i>
    <i name="e_0_energy">   -845.58227750 </i>
   </energy>
  </scstep>
  <scstep>
   <time name="dav">    2.23    2.25</time>
   <time name="total">    2.85    2.88</time>
   <energy>
    <i name="e_fr_energy">   -845.60518797 </i>
    <i name="e_wo_entrp">   -845.60518797 </i>
    <i name="e_0_energy">   -845.60518797 </i>
   </energy>
  </scstep>
  <scstep>
   <time name="dav">    2.17    2.18</time>
   <time name="total">    2.78    2.81</time>
   <energy>
    <i name="e_fr_energy">   -845.63100232 </i>
    <i name="e_wo_entrp">   -845.63100232 </i>
    <i name="e_0_energy">   -845.63100232 </i>
   </energy>
  </scstep>
  <scstep>
   <time name="dav">    2.25    2.27</time>
   <time name="total">    2.87    2.90</time>
   <energy>
    <i name="e_fr_energy">   -845.64483471 </i>
    <i name="e_wo_entrp">   -845.64483471 </i>
    <i name="e_0_energy">   -845.64483471 </i>
   </energy>
  </scstep>
  <scstep>
   <time name="dav">    2.26    2.28</time>
   <time name="total">    2.88    2.91</time>
   <energy>
    <i name="e_fr_energy">   -845.65046434 </i>
    <i name="e_wo_entrp">   -845.65046434 </i>
    <i name="e_0_energy">   -845.65046434 </i>
   </energy>
  </scstep>
  <scstep>
   <time name="dav">    2.25    2.27</time>
   <time name="total">    2.87    2.90</time>
   <energy>
    <i name="e_fr_energy">   -845.65260288 </i>
    <i name="e_wo_entrp">   -845.65260288 </i>
    <i name="e_0_energy">   -845.65260288 </i>
   </energy>
  </scstep>
  <scstep>
   <time name="dav">    2.25    2.27</time>
   <time name="total">    2.87    2.90</time>
   <energy>
    <i name="e_fr_energy">   -845.65340008 </i>
    <i name="e_wo_entrp">   -845.65340008 </i>
    <i name="e_0_energy">   -845.65340008 </i>
   </energy>
  </scstep>
  <scstep>
   <time name="dav">    2.27    2.29</time>
   <time name="total">    2.89    2.93</time>
   <energy>
    <i name="e_fr_energy">   -845.65369279 </i>
    <i name="e_wo_entrp">   -845.65369279 </i>
    <i name="e_0_energy">   -845.65369279 </i>
   </energy>
  </scstep>
  <scstep>
   <time name="dav">    2.16    2.17</time>
   <time name="total">    2.78    2.81</time>
   <energy>
    <i name="e_fr_energy">   -845.65387778 </i>
    <i name="e_wo_entrp">   -845.65387778 </i>
    <i name="e_0_energy">   -845.65387778 </i>
   </energy>
  </scstep>
  <scstep>
   <time name="dav">    2.21    2.22</time>
   <time name="total">    2.82    2.86</time>
   <energy>
    <i name="e_fr_energy">   -845.65399219 </i>
    <i name="e_wo_entrp">   -845.65399219 </i>
    <i name="e_0_energy">   -845.65399219 </i>
   </energy>
  </scstep>
  <scstep>
   <time name="dav">    2.25    2.27</time>
   <time name="total">    2.87    2.90</time>
   <energy>
    <i name="e_fr_energy">   -845.65406326 </i>
    <i name="e_wo_entrp">   -845.65406326 </i>
    <i name="e_0_energy">   -845.65406326 </i>
   </energy>
  </scstep>
  <scstep>
   <time name="dav">    2.26    2.28</time>
   <time name="total">    2.87    2.91</time>
   <energy>
    <i name="e_fr_energy">   -845.65409619 </i>
    <i name="e_wo_entrp">   -845.65409619 </i>
    <i name="e_0_energy">   -845.65409619 </i>
   </energy>
  </scstep>
  <scstep>
   <time name="dav">    2.23    2.25</time>
   <time name="total">    2.85    2.87</time>
   <energy>
    <i name="e_fr_energy">   -845.65411429 </i>
    <i name="e_wo_entrp">   -845.65411429 </i>
    <i name="e_0_energy">   -845.65411429 </i>
   </energy>
  </scstep>
  <scstep>
   <time name="dav">    2.31    2.33</time>
   <time name="total">    2.93    2.96</time>
   <energy>
    <i name="e_fr_energy">   -845.65412042 </i>
    <i name="e_wo_entrp">   -845.65412042 </i>
    <i name="e_0_energy">   -845.65412042 </i>
   </energy>
  </scstep>
  <scstep>
   <time name="dav">    1.96    1.98</time>
   <time name="total">    2.58    2.61</time>
   <energy>
    <i name="e_fr_energy">   -845.65412256 </i>
    <i name="e_wo_entrp">   -845.65412256 </i>
    <i name="e_0_energy">   -845.65412256 </i>
   </energy>
  </scstep>
  <scstep>
   <time name="dav">    1.96    1.98</time>
   <time name="total">    2.59    2.63</time>
   <energy>
    <i name="e_fr_energy">   -845.65412347 </i>
    <i name="e_wo_entrp">   -845.65412347 </i>
    <i name="e_0_energy">   -845.65412347 </i>
   </energy>
  </scstep>
  <scstep>
   <time name="dav">    1.69    1.71</time>
   <time name="total">    2.31    2.34</time>
   <energy>
    <i name="e_fr_energy">   -845.65412363 </i>
    <i name="e_wo_entrp">   -845.65412363 </i>
    <i name="e_0_energy">   -845.65412363 </i>
   </energy>
  </scstep>
  <scstep>
   <time name="dav">    1.66    1.68</time>
   <time name="total">    2.29    2.32</time>
   <energy>
    <i name="e_fr_energy">   -845.65412370 </i>
    <i name="e_wo_entrp">   -845.65412370 </i>
    <i name="e_0_energy">   -845.65412370 </i>
   </energy>
  </scstep>
  <scstep>
   <time name="dav">    1.77    1.78</time>
   <time name="total">    2.39    2.42</time>
   <energy>
    <i name="e_fr_energy">   -845.65412372 </i>
    <i name="e_wo_entrp">   -845.65412372 </i>
    <i name="e_0_energy">   -845.65412372 </i>
   </energy>
  </scstep>
  <scstep>
   <time name="dav">    1.73    1.74</time>
   <time name="total">    2.10    2.12</time>
   <energy>
    <i name="alphaZ">    156.50993408 </i>
    <i name="ewald">  58206.77906233 </i>
    <i name="hartreedc"> -72314.28359383 </i>
    <i name="XCdc">   1369.72415392 </i>
    <i name="pawpsdc">  44018.88591890 </i>
    <i name="pawaedc"> -44054.22783233 </i>
    <i name="eentropy">     -0.00000000 </i>
    <i name="bandstr">  -4489.98056820 </i>
    <i name="atom">  16260.93880140 </i>
    <i name="e_fr_energy">   -845.65412373 </i>
    <i name="e_wo_entrp">   -845.65412373 </i>
    <i name="e_0_energy">   -845.65412373 </i>
   </energy>
  </scstep>
  <structure>
   <crystal>
    <varray name="basis" >
     <v>      17.59966831       0.00000000       0.00000000 </v>
     <v>      -8.79983416      15.24175986       0.00000000 </v>
     <v>       0.00000000       0.00000000      19.92151445 </v>
    </varray>
    <i name="volume">   5343.94461817 </i>
    <varray name="rec_basis" >
     <v>       0.05681925       0.03280461       0.00000000 </v>
     <v>       0.00000000       0.06560922       0.00000000 </v>
     <v>       0.00000000       0.00000000       0.05019699 </v>
    </varray>
   </crystal>
   <varray name="positions" >
    <v>       0.99943010       0.00005992       0.50000000 </v>
    <v>       0.14164706       0.99871895       0.50000000 </v>
    <v>       0.28492260       0.99841663       0.50000000 </v>
    <v>       0.42850047       0.99871895       0.50000000 </v>
    <v>       0.57205839       0.00005992       0.50000000 </v>
    <v>       0.71530655       0.00214292       0.50000000 </v>
    <v>       0.85826494       0.00214292       0.50000000 </v>
    <v>       0.00080792       0.14408264       0.50000000 </v>
    <v>       0.14259355       0.14244783       0.50000000 </v>
    <v>       0.28470221       0.14112972       0.50000000 </v>
    <v>       0.42785608       0.14112972       0.50000000 </v>
    <v>       0.57128286       0.14244783       0.50000000 </v>
    <v>       0.71470329       0.14408264       0.50000000 </v>
    <v>       0.85805263       0.14467669       0.50000000 </v>
    <v>       0.00095476       0.28713011       0.50000000 </v>
    <v>       0.14372552       0.28645370       0.50000000 </v>
    <v>       0.28540977       0.28469374       0.50000000 </v>
    <v>       0.42724431       0.28306005       0.50000000 </v>
    <v>       0.57071254       0.28469374       0.50000000 </v>
    <v>       0.71415674       0.28645370       0.50000000 </v>
    <v>       0.85760392       0.28713011       0.50000000 </v>
    <v>       0.00054479       0.42966101       0.50000000 </v>
    <v>       0.14422690       0.42957551       0.50000000 </v>
    <v>       0.28730213       0.42918005       0.50000000 </v>
    <v>       0.42797654       0.42569726       0.50000000 </v>
    <v>       0.56914930       0.42569726       0.50000000 </v>
    <v>       0.71330650       0.42918005       0.50000000 </v>
    <v>       0.85677719       0.42957551       0.50000000 </v>
    <v>       0.99928255       0.57181462       0.50000000 </v>
    <v>       0.14396064       0.57181462       0.50000000 </v>
    <v>       0.28862787       0.57181625       0.50000000 </v>
    <v>       0.43313209       0.57215564       0.50000000 </v>
    <v>       0.71045212       0.57215564       0.50000000 </v>
    <v>       0.85461695       0.57181625       0.50000000 </v>
    <v>       0.99707234       0.71370518       0.50000000 </v>
    <v>       0.14255519       0.71368182       0.50000000 </v>
    <v>       0.28806142       0.71370518       0.50000000 </v>
    <v>       0.43464191       0.71382540       0.50000000 </v>
    <v>       0.58510826       0.71626937       0.50000000 </v>
    <v>       0.70258968       0.71626937       0.50000000 </v>
    <v>       0.85061206       0.71382540       0.50000000 </v>
    <v>       0.99777175       0.85613493       0.50000000 </v>
    <v>       0.14160898       0.85591288       0.50000000 </v>
    <v>       0.28573247       0.85591288       0.50000000 </v>
    <v>       0.42979175       0.85613493       0.50000000 </v>
    <v>       0.57342541       0.85758690       0.50000000 </v>
    <v>       0.71640633       0.86138410       0.50000000 </v>
    <v>       0.85559006       0.85758690       0.50000000 </v>
    <v>       0.04754270       0.09547788       0.50000000 </v>
    <v>       0.18957833       0.09405657       0.50000000 </v>
    <v>       0.33254182       0.09365506       0.50000000 </v>
    <v>       0.47590681       0.09405657       0.50000000 </v>
    <v>       0.61936376       0.09547788       0.50000000 </v>
    <v>       0.76280004       0.09719274       0.50000000 </v>
    <v>       0.90582126       0.09719274       0.50000000 </v>
    <v>       0.04854983       0.23934281       0.50000000 </v>
    <v>       0.19085757       0.23782962       0.50037619 </v>
    <v>       0.33234878       0.23634667       0.50000000 </v>
    <v>       0.47542646       0.23634667       0.50000000 </v>
    <v>       0.61877681       0.23782962       0.50000000 </v>
    <v>       0.76222155       0.23934281       0.50000000 </v>
    <v>       0.90562797       0.23982737       0.50000000 </v>
    <v>       0.04871288       0.38232824       0.50000000 </v>
    <v>       0.19188940       0.38184213       0.50000000 </v>
    <v>       0.33352206       0.38013969       0.50000000 </v>
    <v>       0.47472270       0.37801683       0.50000000 </v>
    <v>       0.61804620       0.38013969       0.50000000 </v>
    <v>       0.76138130       0.38184213       0.50000000 </v>
    <v>       0.90504393       0.38232824       0.50000000 </v>
    <v>       0.04810654       0.52478452       0.50000000 </v>
    <v>       0.19263929       0.52476864       0.50000000 </v>
    <v>       0.33696521       0.52455433       0.50000000 </v>
    <v>       0.47833704       0.52146721       0.50000000 </v>
    <v>       0.61455874       0.52146721       0.50000000 </v>
    <v>       0.75901769       0.52455433       0.50000000 </v>
    <v>       0.90355792       0.52476864       0.50000000 </v>
    <v>       0.04642473       0.66685228       0.50000000 </v>
    <v>       0.19185612       0.66685228       0.50000000 </v>
    <v>       0.33777931       0.66688794       0.50000000 </v>
    <v>       0.48615700       0.66710760       0.50000000 </v>
    <v>       0.75237918       0.66710760       0.50000000 </v>
    <v>       0.90053720       0.66688794       0.50000000 </v>
    <v>       0.04582562       0.80879365       0.50000000 </v>
    <v>       0.19009580       0.80876303       0.50000000 </v>
    <v>       0.33439660       0.80879365       0.50000000 </v>
    <v>       0.47844872       0.80897069       0.50000000 </v>
    <v>       0.62209487       0.81129474       0.50000000 </v>
    <v>       0.76062845       0.81129474       0.50000000 </v>
    <v>       0.90195054       0.80897069       0.50000000 </v>
    <v>       0.04629157       0.95154386       0.50000000 </v>
    <v>       0.18948291       0.95113037       0.50000000 </v>
    <v>       0.33307603       0.95113037       0.50000000 </v>
    <v>       0.47668087       0.95154386       0.50000000 </v>
    <v>       0.62015751       0.95313740       0.50000000 </v>
    <v>       0.76355772       0.95568687       0.50000000 </v>
    <v>       0.90440847       0.95313740       0.50000000 </v>
    <v>       0.56830873       0.56518888       0.50000000 </v>
   </varray>
  </structure>
  <varray name="forces" >
   <v>      -0.03583262      -0.03061324      -0.00212958 </v>
   <v>      -0.01807375      -0.00572887      -0.00207653 </v>
   <v>      -0.00030175      -0.00997974       0.00004885 </v>
   <v>       0.02094723      -0.00866422       0.00001605 </v>
   <v>       0.03867709      -0.02644404       0.00000896 </v>
   <v>      -0.03461349      -0.05067763       0.00001871 </v>
   <v>       0.03331256      -0.05260875       0.00004028 </v>
   <v>      -0.00756923      -0.03608870       0.00157886 </v>
   <v>       0.02666745      -0.02506564       0.03798354 </v>
   <v>      -0.00903977      -0.02406968       0.00155387 </v>
   <v>       0.00521160      -0.03225783       0.00004197 </v>
   <v>       0.02532804      -0.02534739       0.00001007 </v>
   <v>       0.00421327      -0.02709095       0.00001061 </v>
   <v>      -0.00254658      -0.04272710       0.00004580 </v>
   <v>      -0.01497076      -0.02275242      -0.00213012 </v>
   <v>       0.12121793      -0.08119215       0.03852860 </v>
   <v>       0.09598308       0.03916712       0.03708401 </v>
   <v>      -0.00654295      -0.10040656      -0.00211958 </v>
   <v>       0.02793988      -0.00367647       0.00016344 </v>
   <v>      -0.00726278      -0.04438550       0.00000550 </v>
   <v>       0.00594277      -0.02834200       0.00014497 </v>
   <v>      -0.00269777       0.00896237       0.00018620 </v>
   <v>      -0.02865025       0.00248941      -0.00205762 </v>
   <v>       0.07180350      -0.13867044       0.00151147 </v>
   <v>      -0.11549062      -0.20322224      -0.00187717 </v>
   <v>       0.10919851      -0.20161751       0.00020581 </v>
   <v>      -0.05925556      -0.13901711      -0.00000925 </v>
   <v>       0.02355502      -0.00056014      -0.00000115 </v>
   <v>       0.01584105       0.02970978      -0.00000169 </v>
   <v>      -0.01742014       0.03016824       0.00014567 </v>
   <v>      -0.08352363       0.12916204       0.00005471 </v>
   <v>       0.05241626       0.39553441       0.00004499 </v>
   <v>      -0.05159081       0.39567775      -0.00004559 </v>
   <v>       0.08459361       0.12811876       0.00002125 </v>
   <v>      -0.00879456       0.02285867      -0.00000002 </v>
   <v>      -0.00022568       0.02878920       0.00000530 </v>
   <v>       0.00866788       0.02317934       0.00000869 </v>
   <v>       0.08722759       0.04307830       0.00000635 </v>
   <v>       1.36444855       1.24992848      -0.00001696 </v>
   <v>      -1.36439428       1.24960194      -0.00001677 </v>
   <v>      -0.08686765       0.04257974       0.00000486 </v>
   <v>      -0.04638591      -0.00780798       0.00018476 </v>
   <v>      -0.01238927      -0.00266441       0.00014238 </v>
   <v>       0.01258084      -0.00310029       0.00001017 </v>
   <v>       0.04647016      -0.00733691       0.00001470 </v>
   <v>       0.15071843       0.03583798       0.00001606 </v>
   <v>      -0.00015309      -0.25376194       0.00002349 </v>
   <v>      -0.15058070       0.03453071       0.00013688 </v>
   <v>       0.02482094       0.05357930      -0.00805312 </v>
   <v>       0.00809776       0.00272059      -0.00782132 </v>
   <v>       0.00280770       0.02392298       0.00042580 </v>
   <v>      -0.00857855       0.02233670      -0.00006036 </v>
   <v>      -0.02483598       0.03214175      -0.00000482 </v>
   <v>      -0.01050139       0.02804708      -0.00006252 </v>
   <v>       0.01544945       0.03053500       0.00041585 </v>
   <v>       0.04761441       0.03324409      -0.00793115 </v>
   <v>      -0.36809322      -0.00272919      -0.06294134 </v>
   <v>       0.04754860       0.03731310      -0.00816063 </v>
   <v>      -0.01096522       0.03586829       0.00028131 </v>
   <v>       0.01084042       0.00344757      -0.00002520 </v>
   <v>      -0.01406774       0.03552897      -0.00003335 </v>
   <v>       0.00466825       0.03110922       0.00029458 </v>
   <v>       0.01391996       0.02281863       0.00041765 </v>
   <v>       0.04558180       0.04278608      -0.00774052 </v>
   <v>      -0.02353617      -0.18244218      -0.00838129 </v>
   <v>       0.00289635       0.11376065       0.00034141 </v>
   <v>       0.02389447      -0.19905630      -0.00001159 </v>
   <v>      -0.04629808       0.05955228      -0.00000544 </v>
   <v>      -0.00911179       0.02549804      -0.00006170 </v>
   <v>       0.00092323       0.00745210      -0.00006338 </v>
   <v>       0.02550412      -0.00984980       0.00029131 </v>
   <v>       0.18717520       0.11271871       0.00042176 </v>
   <v>       1.02288232      -1.56149592       0.00058328 </v>
   <v>      -1.02202187      -1.56247131      -0.00005712 </v>
   <v>      -0.18932183       0.11307844      -0.00000481 </v>
   <v>      -0.02481561      -0.00753675      -0.00000846 </v>
   <v>       0.01008457      -0.03394543      -0.00000358 </v>
   <v>      -0.00964893      -0.03432556      -0.00003404 </v>
   <v>      -0.05942561      -0.06717135      -0.00006382 </v>
   <v>      -0.27085074       0.00991904      -0.00009760 </v>
   <v>       0.27057000       0.01011482       0.00001330 </v>
   <v>       0.05910072      -0.06645671      -0.00000970 </v>
   <v>       0.03577864      -0.01353948      -0.00006174 </v>
   <v>       0.00015625      -0.01240492      -0.00003229 </v>
   <v>      -0.03599690      -0.01379140      -0.00000412 </v>
   <v>      -0.08504926      -0.01344168       0.00000099 </v>
   <v>      -0.88604468       0.24463735       0.00004745 </v>
   <v>       0.88651514       0.24519151      -0.00006182 </v>
   <v>       0.08473613      -0.01285661      -0.00006306 </v>
   <v>       0.02868592       0.01715156       0.00041954 </v>
   <v>       0.00965455      -0.00653491       0.00028895 </v>
   <v>      -0.00906303      -0.00505003      -0.00006360 </v>
   <v>      -0.03074325       0.01663463      -0.00000932 </v>
   <v>      -0.10960692       0.11953186      -0.00001550 </v>
   <v>       0.00095537       0.01766977      -0.00006661 </v>
   <v>       0.11040593       0.12211967       0.00033812 </v>
   <v>      -0.00048017      -0.11882660      -0.00009212 </v>
  </varray>
  <varray name="stress" >
   <v>     -10.60072015       0.02370007      -0.00082786 </v>
   <v>       0.02370007       3.03429453      -0.00000701 </v>
   <v>      -0.00082786      -0.00000701      -0.42570551 </v>
  </varray>
  <energy>
   <i name="e_fr_energy">   -845.65412373 </i>
   <i name="e_wo_entrp">   -845.65412373 </i>
   <i name="e_0_energy">     -0.00000000 </i>
  </energy>
  <time name="totalsc">   98.21   99.49</time>
  <eigenvalues>
   <array>
    <dimension dim="1">band</dimension>
    <dimension dim="2">kpoint</dimension>
    <dimension dim="3">spin</dimension>
    <field>eigene</field>
    <field>occ</field>
    <set>
     <set comment="spin 1">
      <set comment="kpoint 1">
       <r>  -22.5390    1.0000 </r>
       <r>  -22.0203    1.0000 </r>
       <r>  -21.7734    1.0000 </r>
       <r>  -21.7438    1.0000 </r>
       <r>  -21.6967    1.0000 </r>
       <r>  -21.6544    1.0000 </r>
       <r>  -21.6180    1.0000 </r>
       <r>  -21.2366    1.0000 </r>
       <r>  -21.0696    1.0000 </r>
       <r>  -21.0034    1.0000 </r>
       <r>  -20.9695    1.0000 </r>
       <r>  -20.9269    1.0000 </r>
       <r>  -20.8754    1.0000 </r>
       <r>  -20.7453    1.0000 </r>
       <r>  -20.7028    1.0000 </r>
       <r>  -20.6640    1.0000 </r>
       <r>  -20.5944    1.0000 </r>
       <r>  -20.5683    1.0000 </r>
       <r>  -20.4276    1.0000 </r>
       <r>  -19.9807    1.0000 </r>
       <r>  -19.9244    1.0000 </r>
       <r>  -19.8045    1.0000 </r>
       <r>  -19.7616    1.0000 </r>
       <r>  -19.7368    1.0000 </r>
       <r>  -19.7348    1.0000 </r>
       <r>  -19.7071    1.0000 </r>
       <r>  -19.6975    1.0000 </r>
       <r>  -19.6438    1.0000 </r>
       <r>  -19.6404    1.0000 </r>
       <r>  -19.6299    1.0000 </r>
       <r>  -19.4927    1.0000 </r>
       <r>  -19.4067    1.0000 </r>
       <r>  -19.3653    1.0000 </r>
       <r>  -19.3569    1.0000 </r>
       <r>  -19.2904    1.0000 </r>
       <r>  -19.2391    1.0000 </r>
       <r>  -19.1075    1.0000 </r>
       <r>  -18.9995    1.0000 </r>
       <r>  -18.9315    1.0000 </r>
       <r>  -18.8744    1.0000 </r>
       <r>  -18.8520    1.0000 </r>
       <r>  -18.8379    1.0000 </r>
       <r>  -18.7671    1.0000 </r>
       <r>  -18.7516    1.0000 </r>
       <r>  -18.7286    1.0000 </r>
       <r>  -18.7144    1.0000 </r>
       <r>  -18.6942    1.0000 </r>
       <r>  -18.4452    1.0000 </r>
       <r>  -14.1391    1.0000 </r>
       <r>  -13.1803    1.0000 </r>
       <r>  -13.1557    1.0000 </r>
       <r>  -13.1104    1.0000 </r>
       <r>  -13.1022    1.0000 </r>
       <r>  -13.0798    1.0000 </r>
       <r>  -13.0166    1.0000 </r>
       <r>  -12.9590    1.0000 </r>
       <r>  -12.9517    1.0000 </r>
       <r>  -12.9366    1.0000 </r>
       <r>  -12.8055    1.0000 </r>
       <r>  -12.7678    1.0000 </r>
       <r>  -12.6015    1.0000 </r>
       <r>  -12.5044    1.0000 </r>
       <r>  -12.4847    1.0000 </r>
       <r>  -12.3775    1.0000 </r>
       <r>  -12.3089    1.0000 </r>
       <r>  -12.2972    1.0000 </r>
       <r>  -12.1761    1.0000 </r>
       <r>  -11.9022    1.0000 </r>
       <r>  -11.8845    1.0000 </r>
       <r>  -11.7668    1.0000 </r>
       <r>  -11.7645    1.0000 </r>
       <r>  -11.7507    1.0000 </r>
       <r>  -11.7421    1.0000 </r>
       <r>  -11.6968    1.0000 </r>
       <r>  -11.6569    1.0000 </r>
       <r>  -11.6311    1.0000 </r>
       <r>  -11.5399    1.0000 </r>
       <r>  -11.4207    1.0000 </r>
       <r>  -11.1993    1.0000 </r>
       <r>  -11.1259    1.0000 </r>
       <r>  -11.0838    1.0000 </r>
       <r>  -11.0581    1.0000 </r>
       <r>  -10.9668    1.0000 </r>
       <r>  -10.9121    1.0000 </r>
       <r>  -10.6853    1.0000 </r>
       <r>  -10.4612    1.0000 </r>
       <r>  -10.4308    1.0000 </r>
       <r>  -10.3491    1.0000 </r>
       <r>  -10.2549    1.0000 </r>
       <r>  -10.2064    1.0000 </r>
       <r>   -9.8895    1.0000 </r>
       <r>   -9.7695    1.0000 </r>
       <r>   -9.7656    1.0000 </r>
       <r>   -9.7237    1.0000 </r>
       <r>   -9.6750    1.0000 </r>
       <r>   -9.5869    1.0000 </r>
       <r>   -9.5422    1.0000 </r>
       <r>   -9.4987    1.0000 </r>
       <r>   -9.4635    1.0000 </r>
       <r>   -9.3513    1.0000 </r>
       <r>   -9.3445    1.0000 </r>
       <r>   -9.2881    1.0000 </r>
       <r>   -9.2616    1.0000 </r>
       <r>   -9.2568    1.0000 </r>
       <r>   -9.2504    1.0000 </r>
       <r>   -9.2374    1.0000 </r>
       <r>   -9.2242    1.0000 </r>
       <r>   -9.2226    1.0000 </r>
       <r>   -9.2071    1.0000 </r>
       <r>   -9.2025    1.0000 </r>
       <r>   -9.1991    1.0000 </r>
       <r>   -9.1970    1.0000 </r>
       <r>   -9.1562    1.0000 </r>
       <r>   -9.1353    1.0000 </r>
       <r>   -9.1114    1.0000 </r>
       <r>   -9.1103    1.0000 </r>
       <r>   -9.0992    1.0000 </r>
       <r>   -9.0461    1.0000 </r>
       <r>   -8.9932    1.0000 </r>
       <r>   -8.8460    1.0000 </r>
       <r>   -8.7962    1.0000 </r>
       <r>   -8.6562    1.0000 </r>
       <r>   -8.5051    1.0000 </r>
       <r>   -8.4809    1.0000 </r>
       <r>   -8.4421    1.0000 </r>
       <r>   -8.3277    1.0000 </r>
       <r>   -8.2233    1.0000 </r>
       <r>   -8.2017    1.0000 </r>
       <r>   -8.1967    1.0000 </r>
       <r>   -8.1710    1.0000 </r>
       <r>   -8.1497    1.0000 </r>
       <r>   -8.1231    1.0000 </r>
       <r>   -8.0383    1.0000 </r>
       <r>   -7.9669    1.0000 </r>
       <r>   -7.9493    1.0000 </r>
       <r>   -7.8737    1.0000 </r>
       <r>   -7.8494    1.0000 </r>
       <r>   -7.8474    1.0000 </r>
       <r>   -7.8026    1.0000 </r>
       <r>   -7.8014    1.0000 </r>
       <r>   -7.7982    1.0000 </r>
       <r>   -7.7372    1.0000 </r>
       <r>   -7.7344    1.0000 </r>
       <r>   -7.7125    1.0000 </r>
       <r>   -7.6778    1.0000 </r>
       <r>   -7.6749    1.0000 </r>
       <r>   -7.6634    1.0000 </r>
       <r>   -7.6382    1.0000 </r>
       <r>   -7.6308    1.0000 </r>
       <r>   -7.4413    1.0000 </r>
       <r>   -7.4370    1.0000 </r>
       <r>   -7.4259    1.0000 </r>
       <r>   -7.3829    1.0000 </r>
       <r>   -7.3594    1.0000 </r>
       <r>   -7.2754    1.0000 </r>
       <r>   -6.8304    1.0000 </r>
       <r>   -6.7601    1.0000 </r>
       <r>   -6.6236    1.0000 </r>
       <r>   -6.6056    1.0000 </r>
       <r>   -6.5423    1.0000 </r>
       <r>   -6.5404    1.0000 </r>
       <r>   -6.5013    1.0000 </r>
       <r>   -6.4892    1.0000 </r>
       <r>   -6.4553    1.0000 </r>
       <r>   -6.4548    1.0000 </r>
       <r>   -6.4407    1.0000 </r>
       <r>   -6.4389    1.0000 </r>
       <r>   -6.4107    1.0000 </r>
       <r>   -6.4040    1.0000 </r>
       <r>   -6.3600    1.0000 </r>
       <r>   -6.3466    1.0000 </r>
       <r>   -6.3182    1.0000 </r>
       <r>   -6.1103    1.0000 </r>
       <r>   -5.9697    1.0000 </r>
       <r>   -5.9257    1.0000 </r>
       <r>   -5.8871    1.0000 </r>
       <r>   -5.8780    1.0000 </r>
       <r>   -5.8628    1.0000 </r>
       <r>   -5.7816    1.0000 </r>
       <r>   -5.7792    1.0000 </r>
       <r>   -5.5275    1.0000 </r>
       <r>   -5.2211    1.0000 </r>
       <r>   -5.1971    1.0000 </r>
       <r>   -5.1954    1.0000 </r>
       <r>   -5.1404    1.0000 </r>
       <r>   -5.1320    1.0000 </r>
       <r>   -5.1050    1.0000 </r>
       <r>   -5.0007    1.0000 </r>
       <r>   -4.9442    1.0000 </r>
       <r>   -4.9177    1.0000 </r>
       <r>   -4.9071    1.0000 </r>
       <r>   -4.9003    1.0000 </r>
       <r>   -4.7324    1.0000 </r>
       <r>   -1.3148    1.0000 </r>
       <r>   -1.2019    0.0000 </r>
       <r>    0.0597    0.0000 </r>
       <r>    0.2050    0.0000 </r>
       <r>    0.2398    0.0000 </r>
       <r>    0.2589    0.0000 </r>
       <r>    0.2626    0.0000 </r>
       <r>    0.3043    0.0000 </r>
       <r>    0.3061    0.0000 </r>
       <r>    0.3767    0.0000 </r>
       <r>    0.3944    0.0000 </r>
       <r>    0.4336    0.0000 </r>
       <r>    0.4779    0.0000 </r>
       <r>    0.5268    0.0000 </r>
       <r>    0.6094    0.0000 </r>
       <r>    0.7468    0.0000 </r>
       <r>    0.7487    0.0000 </r>
       <r>    0.7775    0.0000 </r>
       <r>    0.8061    0.0000 </r>
       <r>    0.8129    0.0000 </r>
       <r>    0.8279    0.0000 </r>
       <r>    0.8382    0.0000 </r>
       <r>    0.8585    0.0000 </r>
       <r>    0.8704    0.0000 </r>
       <r>    0.9807    0.0000 </r>
       <r>    1.0199    0.0000 </r>
       <r>    1.0603    0.0000 </r>
       <r>    1.1191    0.0000 </r>
       <r>    1.4953    0.0000 </r>
       <r>    1.6741    0.0000 </r>
       <r>    1.6970    0.0000 </r>
       <r>    1.7066    0.0000 </r>
       <r>    1.7231    0.0000 </r>
       <r>    1.7399    0.0000 </r>
       <r>    1.7441    0.0000 </r>
       <r>    1.8037    0.0000 </r>
       <r>    1.8085    0.0000 </r>
       <r>    1.8463    0.0000 </r>
       <r>    1.8469    0.0000 </r>
       <r>    1.8786    0.0000 </r>
       <r>    1.8826    0.0000 </r>
       <r>    1.9041    0.0000 </r>
       <r>    1.9082    0.0000 </r>
       <r>    1.9282    0.0000 </r>
       <r>    1.9836    0.0000 </r>
       <r>    2.0297    0.0000 </r>
       <r>    2.1072    0.0000 </r>
       <r>    2.1097    0.0000 </r>
       <r>    2.1286    0.0000 </r>
       <r>    2.1329    0.0000 </r>
       <r>    2.1404    0.0000 </r>
      </set>
     </set>
    </set>
   </array>
  </eigenvalues>
  <separator name="orbital magnetization" >
   <v name="MAGDIPOLOUT">      0.00000000      0.00000000      0.00000000</v>
  </separator>
  <dos>
   <i name="efermi">     -1.25195454 </i>
   <total>
    <array>
     <dimension dim="1">gridpoints</dimension>
     <dimension dim="2">spin</dimension>
     <field>energy</field>
     <field>total</field>
     <field>integrated</field>
     <set>
      <set comment="spin 1">
       <r>   -23.7730     0.0000     0.0000 </r>
       <r>   -23.6825     0.0000     0.0000 </r>
       <r>   -23.5920     0.0000     0.0000 </r>
       <r>   -23.5015     0.0000     0.0000 </r>
       <r>   -23.4110     0.0000     0.0000 </r>
       <r>   -23.3205     0.0000     0.0000 </r>
       <r>   -23.2300     0.0000     0.0000 </r>
       <r>   -23.1395     0.0000     0.0000 </r>
       <r>   -23.0490     0.0000     0.0000 </r>
       <r>   -22.9586     0.0000     0.0000 </r>
       <r>   -22.8681     0.0000     0.0000 </r>
       <r>   -22.7776     0.0000     0.0000 </r>
       <r>   -22.6871     0.0000     0.0000 </r>
       <r>   -22.5966     0.0000     0.0000 </r>
       <r>   -22.5061    22.1015     2.0000 </r>
       <r>   -22.4156     0.0000     2.0000 </r>
       <r>   -22.3251     0.0000     2.0000 </r>
       <r>   -22.2346     0.0000     2.0000 </r>
       <r>   -22.1441     0.0000     2.0000 </r>
       <r>   -22.0536     0.0000     2.0000 </r>
       <r>   -21.9631    22.1015     4.0000 </r>
       <r>   -21.8727     0.0000     4.0000 </r>
       <r>   -21.7822     2.3570     4.2133 </r>
       <r>   -21.6917    38.9069     9.5207 </r>
       <r>   -21.6012    44.0109    13.9826 </r>
       <r>   -21.5107     0.0000    14.0000 </r>
       <r>   -21.4202     0.0000    14.0000 </r>
       <r>   -21.3297     0.0000    14.0000 </r>
       <r>   -21.2392     7.8126    14.7070 </r>
       <r>   -21.1487     0.0000    16.0000 </r>
       <r>   -21.0582    20.9242    17.8935 </r>
       <r>   -20.9677    35.2751    21.1921 </r>
       <r>   -20.8773    30.8776    24.7942 </r>
       <r>   -20.7868     0.0000    26.0000 </r>
       <r>   -20.6963    40.3069    29.6474 </r>
       <r>   -20.6058    23.2733    32.1060 </r>
       <r>   -20.5153    43.0314    36.0000 </r>
       <r>   -20.4248    14.4688    37.3093 </r>
       <r>   -20.3343     0.0000    38.0000 </r>
       <r>   -20.2438     0.0000    38.0000 </r>
       <r>   -20.1533     0.0000    38.0000 </r>
       <r>   -20.0628     0.0000    38.0000 </r>
       <r>   -19.9723    19.4832    39.7631 </r>
       <r>   -19.8818    22.1016    42.0000 </r>
       <r>   -19.7914    21.4155    43.9379 </r>
       <r>   -19.7009    91.1848    52.2515 </r>
       <r>   -19.6104    66.2398    59.9941 </r>
       <r>   -19.5199     0.0013    60.0001 </r>
       <r>   -19.4294    22.1152    62.0014 </r>
       <r>   -19.3389    66.1649    67.9887 </r>
       <r>   -19.2484    24.1881    70.1888 </r>
       <r>   -19.1579     0.0000    72.0000 </r>
       <r>   -19.0674    22.1016    74.0000 </r>
       <r>   -18.9769    22.0860    75.9986 </r>
       <r>   -18.8864    23.0792    78.0885 </r>
       <r>   -18.7960    65.3276    84.0000 </r>
       <r>   -18.7055    87.3424    91.9038 </r>
       <r>   -18.6150    20.8833    94.0000 </r>
       <r>   -18.5245     0.0000    94.0000 </r>
       <r>   -18.4340    20.8371    95.8856 </r>
       <r>   -18.3435     0.0000    96.0000 </r>
       <r>   -18.2530     0.0000    96.0000 </r>
       <r>   -18.1625     0.0000    96.0000 </r>
       <r>   -18.0720     0.0000    96.0000 </r>
       <r>   -17.9815     0.0000    96.0000 </r>
       <r>   -17.8910     0.0000    96.0000 </r>
       <r>   -17.8005     0.0000    96.0000 </r>
       <r>   -17.7101     0.0000    96.0000 </r>
       <r>   -17.6196     0.0000    96.0000 </r>
       <r>   -17.5291     0.0000    96.0000 </r>
       <r>   -17.4386     0.0000    96.0000 </r>
       <r>   -17.3481     0.0000    96.0000 </r>
       <r>   -17.2576     0.0000    96.0000 </r>
       <r>   -17.1671     0.0000    96.0000 </r>
       <r>   -17.0766     0.0000    96.0000 </r>
       <r>   -16.9861     0.0000    96.0000 </r>
       <r>   -16.8956     0.0000    96.0000 </r>
       <r>   -16.8051     0.0000    96.0000 </r>
       <r>   -16.7147     0.0000    96.0000 </r>
       <r>   -16.6242     0.0000    96.0000 </r>
       <r>   -16.5337     0.0000    96.0000 </r>
       <r>   -16.4432     0.0000    96.0000 </r>
       <r>   -16.3527     0.0000    96.0000 </r>
       <r>   -16.2622     0.0000    96.0000 </r>
       <r>   -16.1717     0.0000    96.0000 </r>
       <r>   -16.0812     0.0000    96.0000 </r>
       <r>   -15.9907     0.0000    96.0000 </r>
       <r>   -15.9002     0.0000    96.0000 </r>
       <r>   -15.8097     0.0000    96.0000 </r>
       <r>   -15.7193     0.0000    96.0000 </r>
       <r>   -15.6288     0.0000    96.0000 </r>
       <r>   -15.5383     0.0000    96.0000 </r>
       <r>   -15.4478     0.0000    96.0000 </r>
       <r>   -15.3573     0.0000    96.0000 </r>
       <r>   -15.2668     0.0000    96.0000 </r>
       <r>   -15.1763     0.0000    96.0000 </r>
       <r>   -15.0858     0.0000    96.0000 </r>
       <r>   -14.9953     0.0000    96.0000 </r>
       <r>   -14.9048     0.0000    96.0000 </r>
       <r>   -14.8143     0.0000    96.0000 </r>
       <r>   -14.7238     0.0000    96.0000 </r>
       <r>   -14.6334     0.0000    96.0000 </r>
       <r>   -14.5429     0.0000    96.0000 </r>
       <r>   -14.4524     0.0000    96.0000 </r>
       <r>   -14.3619     0.0000    96.0000 </r>
       <r>   -14.2714     0.0000    96.0000 </r>
       <r>   -14.1809     0.0000    96.0000 </r>
       <r>   -14.0904    22.1016    98.0000 </r>
       <r>   -13.9999     0.0000    98.0000 </r>
       <r>   -13.9094     0.0000    98.0000 </r>
       <r>   -13.8189     0.0000    98.0000 </r>
       <r>   -13.7284     0.0000    98.0000 </r>
       <r>   -13.6380     0.0000    98.0000 </r>
       <r>   -13.5475     0.0000    98.0000 </r>
       <r>   -13.4570     0.0000    98.0000 </r>
       <r>   -13.3665     0.0000    98.0000 </r>
       <r>   -13.2760     0.0000    98.0000 </r>
       <r>   -13.1855     5.0914    98.4607 </r>
       <r>   -13.0950    62.8801   105.6901 </r>
       <r>   -13.0045    42.9053   109.9136 </r>
       <r>   -12.9140    66.2891   115.9986 </r>
       <r>   -12.8235     0.1211   116.0110 </r>
       <r>   -12.7330    44.0820   120.0000 </r>
       <r>   -12.6425     0.0000   120.0000 </r>
       <r>   -12.5521    22.1016   122.0000 </r>
       <r>   -12.4616    44.1916   125.9990 </r>
       <r>   -12.3711    18.0829   127.6363 </r>
       <r>   -12.2806    43.9931   131.9810 </r>
       <r>   -12.1901     0.5254   132.0475 </r>
       <r>   -12.0996    21.5761   134.0000 </r>
       <r>   -12.0091     0.0000   134.0000 </r>
       <r>   -11.9186     0.2279   134.0206 </r>
       <r>   -11.8281    43.9753   138.0000 </r>
       <r>   -11.7376    81.8741   145.4089 </r>
       <r>   -11.6471    42.6107   149.8559 </r>
       <r>   -11.5567    22.0467   152.0181 </r>
       <r>   -11.4662    21.9014   154.0000 </r>
       <r>   -11.3757    22.1016   156.0000 </r>
       <r>   -11.2852     0.0000   156.0000 </r>
       <r>   -11.1947    16.4713   157.4905 </r>
       <r>   -11.1042    22.1225   160.0019 </r>
       <r>   -11.0137    44.1591   164.0000 </r>
       <r>   -10.9232    23.3912   166.1167 </r>
       <r>   -10.8327    20.8119   168.0000 </r>
       <r>   -10.7422     0.0000   168.0000 </r>
       <r>   -10.6517    22.1016   170.0000 </r>
       <r>   -10.5612     0.0000   170.0000 </r>
       <r>   -10.4708     1.9383   170.1754 </r>
       <r>   -10.3803    22.1017   174.0000 </r>
       <r>   -10.2898    22.1015   176.0000 </r>
       <r>   -10.1993    40.7343   179.6861 </r>
       <r>   -10.1088     0.0000   180.0000 </r>
       <r>   -10.0183     0.0000   180.0000 </r>
       <r>    -9.9278     0.0000   180.0000 </r>
       <r>    -9.8373    22.1016   182.0000 </r>
       <r>    -9.7468    44.1140   185.9919 </r>
       <r>    -9.6563    44.1011   189.9919 </r>
       <r>    -9.5658    22.0782   191.9979 </r>
       <r>    -9.4754    45.2244   196.0932 </r>
       <r>    -9.3849    21.0606   198.0000 </r>
       <r>    -9.2944    48.3552   202.3757 </r>
       <r>    -9.2039   165.9859   219.0203 </r>
       <r>    -9.1134    60.5782   229.4818 </r>
       <r>    -9.0229    43.6894   235.9990 </r>
       <r>    -8.9324    22.1013   238.0000 </r>
       <r>    -8.8419    15.8739   239.4365 </r>
       <r>    -8.7514    22.1016   242.0000 </r>
       <r>    -8.6609     5.5554   242.5027 </r>
       <r>    -8.5704     0.0000   244.0000 </r>
       <r>    -8.4799    34.2993   247.1038 </r>
       <r>    -8.3895    22.1016   250.0000 </r>
       <r>    -8.2990    22.1010   252.0000 </r>
       <r>    -8.2085    26.4982   254.3979 </r>
       <r>    -8.1180    82.1856   263.5324 </r>
       <r>    -8.0275    20.6992   265.8731 </r>
       <r>    -7.9370    43.2910   269.9175 </r>
       <r>    -7.8465    48.8571   274.4211 </r>
       <r>    -7.7560    66.4171   282.0102 </r>
       <r>    -7.6655   115.8380   292.4925 </r>
       <r>    -7.5750    44.2019   298.0000 </r>
       <r>    -7.4845     0.0000   298.0000 </r>
       <r>    -7.3941    67.5705   304.1145 </r>
       <r>    -7.3036    42.9381   308.0001 </r>
       <r>    -7.2131    22.1008   310.0000 </r>
       <r>    -7.1226     0.0000   310.0000 </r>
       <r>    -7.0321     0.0000   310.0000 </r>
       <r>    -6.9416     0.0000   310.0000 </r>
       <r>    -6.8511     0.0381   310.0035 </r>
       <r>    -6.7606    32.5060   312.9450 </r>
       <r>    -6.6701     0.0000   314.0000 </r>
       <r>    -6.5796    44.2005   317.9998 </r>
       <r>    -6.4891    76.4944   324.9221 </r>
       <r>    -6.3986   126.6332   337.4592 </r>
       <r>    -6.3082    64.5799   343.8439 </r>
       <r>    -6.2177     0.0000   344.0000 </r>
       <r>    -6.1272     0.1913   344.0173 </r>
       <r>    -6.0367    21.9103   346.0000 </r>
       <r>    -5.9462    22.1332   348.0029 </r>
       <r>    -5.8557    84.8515   355.6821 </r>
       <r>    -5.7652    43.4410   359.9310 </r>
       <r>    -5.6747     0.0000   360.0000 </r>
       <r>    -5.5842     0.0000   360.0000 </r>
       <r>    -5.4937    22.1016   362.0000 </r>
       <r>    -5.4032     0.0000   362.0000 </r>
       <r>    -5.3128     0.0000   362.0000 </r>
       <r>    -5.2223     9.6177   362.8703 </r>
       <r>    -5.1318    75.2329   370.8084 </r>
       <r>    -5.0413    22.0999   374.0000 </r>
       <r>    -4.9508    25.9752   376.3505 </r>
       <r>    -4.8603    66.3047   384.0000 </r>
       <r>    -4.7698     0.0000   384.0000 </r>
       <r>    -4.6793    22.1016   386.0000 </r>
       <r>    -4.5888     0.0000   386.0000 </r>
       <r>    -4.4983     0.0000   386.0000 </r>
       <r>    -4.4078     0.0000   386.0000 </r>
       <r>    -4.3173     0.0000   386.0000 </r>
       <r>    -4.2269     0.0000   386.0000 </r>
       <r>    -4.1364     0.0000   386.0000 </r>
       <r>    -4.0459     0.0000   386.0000 </r>
       <r>    -3.9554     0.0000   386.0000 </r>
       <r>    -3.8649     0.0000   386.0000 </r>
       <r>    -3.7744     0.0000   386.0000 </r>
       <r>    -3.6839     0.0000   386.0000 </r>
       <r>    -3.5934     0.0000   386.0000 </r>
       <r>    -3.5029     0.0000   386.0000 </r>
       <r>    -3.4124     0.0000   386.0000 </r>
       <r>    -3.3219     0.0000   386.0000 </r>
       <r>    -3.2315     0.0000   386.0000 </r>
       <r>    -3.1410     0.0000   386.0000 </r>
       <r>    -3.0505     0.0000   386.0000 </r>
       <r>    -2.9600     0.0000   386.0000 </r>
       <r>    -2.8695     0.0000   386.0000 </r>
       <r>    -2.7790     0.0000   386.0000 </r>
       <r>    -2.6885     0.0000   386.0000 </r>
       <r>    -2.5980     0.0000   386.0000 </r>
       <r>    -2.5075     0.0000   386.0000 </r>
       <r>    -2.4170     0.0000   386.0000 </r>
       <r>    -2.3265     0.0000   386.0000 </r>
       <r>    -2.2360     0.0000   386.0000 </r>
       <r>    -2.1456     0.0000   386.0000 </r>
       <r>    -2.0551     0.0000   386.0000 </r>
       <r>    -1.9646     0.0000   386.0000 </r>
       <r>    -1.8741     0.0000   386.0000 </r>
       <r>    -1.7836     0.0000   386.0000 </r>
       <r>    -1.6931     0.0000   386.0000 </r>
       <r>    -1.6026     0.0000   386.0000 </r>
       <r>    -1.5121     0.0000   386.0000 </r>
       <r>    -1.4216     0.0000   386.0000 </r>
       <r>    -1.3311     0.2304   386.0209 </r>
       <r>    -1.2406    21.8711   388.0000 </r>
       <r>    -1.1502    22.1016   390.0000 </r>
       <r>    -1.0597     0.0000   390.0000 </r>
       <r>    -0.9692     0.0000   390.0000 </r>
       <r>    -0.8787     0.0000   390.0000 </r>
       <r>    -0.7882     0.0000   390.0000 </r>
       <r>    -0.6977     0.0000   390.0000 </r>
       <r>    -0.6072     0.0000   390.0000 </r>
       <r>    -0.5167     0.0000   390.0000 </r>
       <r>    -0.4262     0.0000   390.0000 </r>
       <r>    -0.3357     0.0000   390.0000 </r>
       <r>    -0.2452     0.0000   390.0000 </r>
       <r>    -0.1547     0.0000   390.0000 </r>
       <r>    -0.0643     0.0000   390.0000 </r>
       <r>     0.0262     0.0000   390.0000 </r>
       <r>     0.1167    22.1015   392.0000 </r>
       <r>     0.2072    13.8000   393.2488 </r>
       <r>     0.2977    72.7789   400.5859 </r>
       <r>     0.3882    25.1298   406.2740 </r>
       <r>     0.4787    34.1895   411.0939 </r>
       <r>     0.5692    22.1016   414.0000 </r>
       <r>     0.6597    22.1016   416.0000 </r>
       <r>     0.7502    28.0217   418.5357 </r>
       <r>     0.8407   101.7674   429.2092 </r>
       <r>     0.9311    44.0718   434.0000 </r>
       <r>     1.0216    35.2809   437.1926 </r>
       <r>     1.1121    25.6664   440.3226 </r>
       <r>     1.2026     0.0000   442.0000 </r>
       <r>     1.2931     0.0000   442.0000 </r>
       <r>     1.3836     0.0000   442.0000 </r>
       <r>     1.4741     0.0301   442.0027 </r>
       <r>     1.5646    22.0714   444.0000 </r>
       <r>     1.6551     0.0804   444.0073 </r>
       <r>     1.7456   118.6123   454.7407 </r>
       <r>     1.8361    47.2109   460.2722 </r>
       <r>     1.9266   118.0503   472.8086 </r>
       <r>     2.0170    22.9024   476.0725 </r>
       <r>     2.1075    41.1543   479.7966 </r>
       <r>     2.1980    66.2691   488.0000 </r>
       <r>     2.2885     0.0000   488.0000 </r>
       <r>     2.3790     0.0000   488.0000 </r>
       <r>     2.4695     0.0000   488.0000 </r>
       <r>     2.5600     0.0000   488.0000 </r>
       <r>     2.6505     0.0000   488.0000 </r>
       <r>     2.7410     0.0000   488.0000 </r>
       <r>     2.8315     0.0000   488.0000 </r>
       <r>     2.9220     0.0000   488.0000 </r>
       <r>     3.0124     0.0000   488.0000 </r>
       <r>     3.1029     0.0000   488.0000 </r>
       <r>     3.1934     0.0000   488.0000 </r>
       <r>     3.2839     0.0000   488.0000 </r>
       <r>     3.3744     0.0000   488.0000 </r>
      </set>
     </set>
    </array>
   </total>
  </dos>
 </calculation>
 <structure name="finalpos" >
  <crystal>
   <varray name="basis" >
    <v>      17.59966831       0.00000000       0.00000000 </v>
    <v>      -8.79983416      15.24175986       0.00000000 </v>
    <v>       0.00000000       0.00000000      19.92151445 </v>
   </varray>
   <i name="volume">   5343.94461817 </i>
   <varray name="rec_basis" >
    <v>       0.05681925       0.03280461       0.00000000 </v>
    <v>       0.00000000       0.06560922       0.00000000 </v>
    <v>       0.00000000       0.00000000       0.05019699 </v>
   </varray>
  </crystal>
  <varray name="positions" >
   <v>       0.99943010       0.00005992       0.50000000 </v>
   <v>       0.14164706       0.99871895       0.50000000 </v>
   <v>       0.28492260       0.99841663       0.50000000 </v>
   <v>       0.42850047       0.99871895       0.50000000 </v>
   <v>       0.57205839       0.00005992       0.50000000 </v>
   <v>       0.71530655       0.00214292       0.50000000 </v>
   <v>       0.85826494       0.00214292       0.50000000 </v>
   <v>       0.00080792       0.14408264       0.50000000 </v>
   <v>       0.14259355       0.14244783       0.50000000 </v>
   <v>       0.28470221       0.14112972       0.50000000 </v>
   <v>       0.42785608       0.14112972       0.50000000 </v>
   <v>       0.57128286       0.14244783       0.50000000 </v>
   <v>       0.71470329       0.14408264       0.50000000 </v>
   <v>       0.85805263       0.14467669       0.50000000 </v>
   <v>       0.00095476       0.28713011       0.50000000 </v>
   <v>       0.14372552       0.28645370       0.50000000 </v>
   <v>       0.28540977       0.28469374       0.50000000 </v>
   <v>       0.42724431       0.28306005       0.50000000 </v>
   <v>       0.57071254       0.28469374       0.50000000 </v>
   <v>       0.71415674       0.28645370       0.50000000 </v>
   <v>       0.85760392       0.28713011       0.50000000 </v>
   <v>       0.00054479       0.42966101       0.50000000 </v>
   <v>       0.14422690       0.42957551       0.50000000 </v>
   <v>       0.28730213       0.42918005       0.50000000 </v>
   <v>       0.42797654       0.42569726       0.50000000 </v>
   <v>       0.56914930       0.42569726       0.50000000 </v>
   <v>       0.71330650       0.42918005       0.50000000 </v>
   <v>       0.85677719       0.42957551       0.50000000 </v>
   <v>       0.99928255       0.57181462       0.50000000 </v>
   <v>       0.14396064       0.57181462       0.50000000 </v>
   <v>       0.28862787       0.57181625       0.50000000 </v>
   <v>       0.43313209       0.57215564       0.50000000 </v>
   <v>       0.71045212       0.57215564       0.50000000 </v>
   <v>       0.85461695       0.57181625       0.50000000 </v>
   <v>       0.99707234       0.71370518       0.50000000 </v>
   <v>       0.14255519       0.71368182       0.50000000 </v>
   <v>       0.28806142       0.71370518       0.50000000 </v>
   <v>       0.43464191       0.71382540       0.50000000 </v>
   <v>       0.58510826       0.71626937       0.50000000 </v>
   <v>       0.70258968       0.71626937       0.50000000 </v>
   <v>       0.85061206       0.71382540       0.50000000 </v>
   <v>       0.99777175       0.85613493       0.50000000 </v>
   <v>       0.14160898       0.85591288       0.50000000 </v>
   <v>       0.28573247       0.85591288       0.50000000 </v>
   <v>       0.42979175       0.85613493       0.50000000 </v>
   <v>       0.57342541       0.85758690       0.50000000 </v>
   <v>       0.71640633       0.86138410       0.50000000 </v>
   <v>       0.85559006       0.85758690       0.50000000 </v>
   <v>       0.04754270       0.09547788       0.50000000 </v>
   <v>       0.18957833       0.09405657       0.50000000 </v>
   <v>       0.33254182       0.09365506       0.50000000 </v>
   <v>       0.47590681       0.09405657       0.50000000 </v>
   <v>       0.61936376       0.09547788       0.50000000 </v>
   <v>       0.76280004       0.09719274       0.50000000 </v>
   <v>       0.90582126       0.09719274       0.50000000 </v>
   <v>       0.04854983       0.23934281       0.50000000 </v>
   <v>       0.19085757       0.23782962       0.50037619 </v>
   <v>       0.33234878       0.23634667       0.50000000 </v>
   <v>       0.47542646       0.23634667       0.50000000 </v>
   <v>       0.61877681       0.23782962       0.50000000 </v>
   <v>       0.76222155       0.23934281       0.50000000 </v>
   <v>       0.90562797       0.23982737       0.50000000 </v>
   <v>       0.04871288       0.38232824       0.50000000 </v>
   <v>       0.19188940       0.38184213       0.50000000 </v>
   <v>       0.33352206       0.38013969       0.50000000 </v>
   <v>       0.47472270       0.37801683       0.50000000 </v>
   <v>       0.61804620       0.38013969       0.50000000 </v>
   <v>       0.76138130       0.38184213       0.50000000 </v>
   <v>       0.90504393       0.38232824       0.50000000 </v>
   <v>       0.04810654       0.52478452       0.50000000 </v>
   <v>       0.19263929       0.52476864       0.50000000 </v>
   <v>       0.33696521       0.52455433       0.50000000 </v>
   <v>       0.47833704       0.52146721       0.50000000 </v>
   <v>       0.61455874       0.52146721       0.50000000 </v>
   <v>       0.75901769       0.52455433       0.50000000 </v>
   <v>       0.90355792       0.52476864       0.50000000 </v>
   <v>       0.04642473       0.66685228       0.50000000 </v>
   <v>       0.19185612       0.66685228       0.50000000 </v>
   <v>       0.33777931       0.66688794       0.50000000 </v>
   <v>       0.48615700       0.66710760       0.50000000 </v>
   <v>       0.75237918       0.66710760       0.50000000 </v>
   <v>       0.90053720       0.66688794       0.50000000 </v>
   <v>       0.04582562       0.80879365       0.50000000 </v>
   <v>       0.19009580       0.80876303       0.50000000 </v>
   <v>       0.33439660       0.80879365       0.50000000 </v>
   <v>       0.47844872       0.80897069       0.50000000 </v>
   <v>       0.62209487       0.81129474       0.50000000 </v>
   <v>       0.76062845       0.81129474       0.50000000 </v>
   <v>       0.90195054       0.80897069       0.50000000 </v>
   <v>       0.04629157       0.95154386       0.50000000 </v>
   <v>       0.18948291       0.95113037       0.50000000 </v>
   <v>       0.33307603       0.95113037       0.50000000 </v>
   <v>       0.47668087       0.95154386       0.50000000 </v>
   <v>       0.62015751       0.95313740       0.50000000 </v>
   <v>       0.76355772       0.95568687       0.50000000 </v>
   <v>       0.90440847       0.95313740       0.50000000 </v>
   <v>       0.56830873       0.56518888       0.50000000 </v>
  </varray>
 </structure>
</modeling>
