phonopy:
  version: 2.17.2
  frequency_unit_conversion_factor: 15.633302
  symmetry_tolerance: 1.00000e-05
  configuration:
    dim: "1 1 1"
    atom_name: "B N C"
    band_points: "1"
    band: "0.0 0.0 0.0 0 0 0"
    eigenvectors: ".TRUE."
    dos: ".TRUE."
    writedm: ".TRUE."
    gamma_center: ".TRUE."
    cell_filename: "CONTCAR_GS"

physical_unit:
  atomic_mass: "AMU"
  length: "angstrom"
  force_constants: "eV/angstrom^2"

space_group:
  type: "Amm2"
  number: 38
  Hall_symbol: "A 2 -2"

supercell_matrix:
- [   1,   0,   0 ]
- [   0,   1,   0 ]
- [   0,   0,   1 ]

primitive_cell:
  lattice:
  - [    17.599668312982089,     0.000000000000000,     0.000000000000000 ] # a
  - [    -8.799834156491045,    15.241759857222506,     0.000000000000000 ] # b
  - [     0.000000000000000,     0.000000000000000,    19.921514452439983 ] # c
  points:
  - symbol: B  # 1
    coordinates: [  0.999430098530646,  0.000059921619058,  0.500000000000000 ]
    mass: 10.811000
  - symbol: B  # 2
    coordinates: [  0.141647057904669,  0.998718954142076,  0.500000000000000 ]
    mass: 10.811000
  - symbol: B  # 3
    coordinates: [  0.284922602436297,  0.998416633444024,  0.500000000000000 ]
    mass: 10.811000
  - symbol: B  # 4
    coordinates: [  0.428500467665984,  0.998718954142076,  0.500000000000000 ]
    mass: 10.811000
  - symbol: B  # 5
    coordinates: [  0.572058394516981,  0.000059921619058,  0.500000000000000 ]
    mass: 10.811000
  - symbol: B  # 6
    coordinates: [  0.715306551835897,  0.002142920434707,  0.500000000000000 ]
    mass: 10.811000
  - symbol: B  # 7
    coordinates: [  0.858264940027379,  0.002142920434707,  0.500000000000000 ]
    mass: 10.811000
  - symbol: B  # 8
    coordinates: [  0.000807917139170,  0.144082639988960,  0.500000000000000 ]
    mass: 10.811000
  - symbol: B  # 9
    coordinates: [  0.142593549790335,  0.142447834994910,  0.500000000000000 ]
    mass: 10.811000
  - symbol: B  # 10
    coordinates: [  0.284702211745970,  0.141129719085944,  0.500000000000000 ]
    mass: 10.811000
  - symbol: B  # 11
    coordinates: [  0.427856078768543,  0.141129719085944,  0.500000000000000 ]
    mass: 10.811000
  - symbol: B  # 12
    coordinates: [  0.571282856633144,  0.142447834994910,  0.500000000000000 ]
    mass: 10.811000
  - symbol: B  # 13
    coordinates: [  0.714703294278359,  0.144082639988960,  0.500000000000000 ]
    mass: 10.811000
  - symbol: B  # 14
    coordinates: [  0.858052629256687,  0.144676687084811,  0.500000000000000 ]
    mass: 10.811000
  - symbol: B  # 15
    coordinates: [  0.000954759639563,  0.287130105005760,  0.500000000000000 ]
    mass: 10.811000
  - symbol: B  # 16
    coordinates: [  0.143725524626778,  0.286453696267978,  0.500000000000000 ]
    mass: 10.811000
  - symbol: B  # 17
    coordinates: [  0.285409771951985,  0.284693736418344,  0.500000000000000 ]
    mass: 10.811000
  - symbol: B  # 18
    coordinates: [  0.427244310318088,  0.283060049207600,  0.500000000000000 ]
    mass: 10.811000
  - symbol: B  # 19
    coordinates: [  0.570712535894928,  0.284693736418344,  0.500000000000000 ]
    mass: 10.811000
  - symbol: B  # 20
    coordinates: [  0.714156743069776,  0.286453696267978,  0.500000000000000 ]
    mass: 10.811000
  - symbol: B  # 21
    coordinates: [  0.857603916794766,  0.287130105005760,  0.500000000000000 ]
    mass: 10.811000
  - symbol: B  # 22
    coordinates: [  0.000544789116600,  0.429661006804631,  0.500000000000000 ]
    mass: 10.811000
  - symbol: B  # 23
    coordinates: [  0.144226898329009,  0.429575514105810,  0.500000000000000 ]
    mass: 10.811000
  - symbol: B  # 24
    coordinates: [  0.287302127215615,  0.429180054314441,  0.500000000000000 ]
    mass: 10.811000
  - symbol: B  # 25
    coordinates: [  0.427976535364478,  0.425697259185706,  0.500000000000000 ]
    mass: 10.811000
  - symbol: B  # 26
    coordinates: [  0.569149295249796,  0.425697259185706,  0.500000000000000 ]
    mass: 10.811000
  - symbol: B  # 27
    coordinates: [  0.713306498527395,  0.429180054314441,  0.500000000000000 ]
    mass: 10.811000
  - symbol: B  # 28
    coordinates: [  0.856777187205371,  0.429575514105810,  0.500000000000000 ]
    mass: 10.811000
  - symbol: B  # 29
    coordinates: [  0.999282549393890,  0.571814622795143,  0.500000000000000 ]
    mass: 10.811000
  - symbol: B  # 30
    coordinates: [  0.143960644829829,  0.571814622795143,  0.500000000000000 ]
    mass: 10.811000
  - symbol: B  # 31
    coordinates: [  0.288627869876343,  0.571816247309018,  0.500000000000000 ]
    mass: 10.811000
  - symbol: B  # 32
    coordinates: [  0.433132091735913,  0.572155643538021,  0.500000000000000 ]
    mass: 10.811000
  - symbol: B  # 33
    coordinates: [  0.710452123230685,  0.572155643538021,  0.500000000000000 ]
    mass: 10.811000
  - symbol: B  # 34
    coordinates: [  0.854616948861244,  0.571816247309018,  0.500000000000000 ]
    mass: 10.811000
  - symbol: B  # 35
    coordinates: [  0.997072336317743,  0.713705184619728,  0.500000000000000 ]
    mass: 10.811000
  - symbol: B  # 36
    coordinates: [  0.142555193266986,  0.713681815105395,  0.500000000000000 ]
    mass: 10.811000
  - symbol: B  # 37
    coordinates: [  0.288061419730555,  0.713705184619728,  0.500000000000000 ]
    mass: 10.811000
  - symbol: B  # 38
    coordinates: [  0.434641914078501,  0.713825404960851,  0.500000000000000 ]
    mass: 10.811000
  - symbol: B  # 39
    coordinates: [  0.585108261425077,  0.716269365244394,  0.500000000000000 ]
    mass: 10.811000
  - symbol: B  # 40
    coordinates: [  0.702589675247886,  0.716269365244394,  0.500000000000000 ]
    mass: 10.811000
  - symbol: B  # 41
    coordinates: [  0.850612062310920,  0.713825404960851,  0.500000000000000 ]
    mass: 10.811000
  - symbol: B  # 42
    coordinates: [  0.997771749534155,  0.856134927159479,  0.500000000000000 ]
    mass: 10.811000
  - symbol: B  # 43
    coordinates: [  0.141608980770152,  0.855912876526120,  0.500000000000000 ]
    mass: 10.811000
  - symbol: B  # 44
    coordinates: [  0.285732467184545,  0.855912876526120,  0.500000000000000 ]
    mass: 10.811000
  - symbol: B  # 45
    coordinates: [  0.429791749053900,  0.856134927159479,  0.500000000000000 ]
    mass: 10.811000
  - symbol: B  # 46
    coordinates: [  0.573425410488197,  0.857586903756307,  0.500000000000000 ]
    mass: 10.811000
  - symbol: B  # 47
    coordinates: [  0.716406333437867,  0.861384095447156,  0.500000000000000 ]
    mass: 10.811000
  - symbol: B  # 48
    coordinates: [  0.855590064696680,  0.857586903756307,  0.500000000000000 ]
    mass: 10.811000
  - symbol: N  # 49
    coordinates: [  0.047542698836420,  0.095477882930706,  0.500000000000000 ]
    mass: 14.006700
  - symbol: N  # 50
    coordinates: [  0.189578325086111,  0.094056566873214,  0.500000000000000 ]
    mass: 14.006700
  - symbol: N  # 51
    coordinates: [  0.332541815188519,  0.093655058948462,  0.500000000000000 ]
    mass: 14.006700
  - symbol: N  # 52
    coordinates: [  0.475906813215672,  0.094056566873214,  0.500000000000000 ]
    mass: 14.006700
  - symbol: N  # 53
    coordinates: [  0.619363755522861,  0.095477882930706,  0.500000000000000 ]
    mass: 14.006700
  - symbol: N  # 54
    coordinates: [  0.762800042705542,  0.097192736050358,  0.500000000000000 ]
    mass: 14.006700
  - symbol: N  # 55
    coordinates: [  0.905821264773386,  0.097192736050358,  0.500000000000000 ]
    mass: 14.006700
  - symbol: N  # 56
    coordinates: [  0.048549826576563,  0.239342809927454,  0.500000000000000 ]
    mass: 14.006700
  - symbol: N  # 57
    coordinates: [  0.190481382607771,  0.237829616545316,  0.500000000000000 ]
    mass: 14.006700
  - symbol: N  # 58
    coordinates: [  0.332348779385288,  0.236346672764710,  0.500000000000000 ]
    mass: 14.006700
  - symbol: N  # 59
    coordinates: [  0.475426464807991,  0.236346672764710,  0.500000000000000 ]
    mass: 14.006700
  - symbol: N  # 60
    coordinates: [  0.618776805366114,  0.237829616545316,  0.500000000000000 ]
    mass: 14.006700
  - symbol: N  # 61
    coordinates: [  0.762221554779460,  0.239342809927454,  0.500000000000000 ]
    mass: 14.006700
  - symbol: N  # 62
    coordinates: [  0.905627971627943,  0.239827371827316,  0.500000000000000 ]
    mass: 14.006700
  - symbol: N  # 63
    coordinates: [  0.048712882686211,  0.382328238584791,  0.500000000000000 ]
    mass: 14.006700
  - symbol: N  # 64
    coordinates: [  0.191889396315952,  0.381842126130914,  0.500000000000000 ]
    mass: 14.006700
  - symbol: N  # 65
    coordinates: [  0.333522060677429,  0.380139687013427,  0.500000000000000 ]
    mass: 14.006700
  - symbol: N  # 66
    coordinates: [  0.474722700562027,  0.378016829695484,  0.500000000000000 ]
    mass: 14.006700
  - symbol: N  # 67
    coordinates: [  0.618046197764574,  0.380139687013427,  0.500000000000000 ]
    mass: 14.006700
  - symbol: N  # 68
    coordinates: [  0.761381301243532,  0.381842126130914,  0.500000000000000 ]
    mass: 14.006700
  - symbol: N  # 69
    coordinates: [  0.905043927327156,  0.382328238584791,  0.500000000000000 ]
    mass: 14.006700
  - symbol: N  # 70
    coordinates: [  0.048106543462081,  0.524784515495586,  0.500000000000000 ]
    mass: 14.006700
  - symbol: N  # 71
    coordinates: [  0.192639291970164,  0.524768643048255,  0.500000000000000 ]
    mass: 14.006700
  - symbol: N  # 72
    coordinates: [  0.336965208832674,  0.524554326627940,  0.500000000000000 ]
    mass: 14.006700
  - symbol: N  # 73
    coordinates: [  0.478337039350493,  0.521467205629292,  0.500000000000000 ]
    mass: 14.006700
  - symbol: N  # 74
    coordinates: [  0.614558737707369,  0.521467205629292,  0.500000000000000 ]
    mass: 14.006700
  - symbol: N  # 75
    coordinates: [  0.759017689223836,  0.524554326627940,  0.500000000000000 ]
    mass: 14.006700
  - symbol: N  # 76
    coordinates: [  0.903557922506660,  0.524768643048255,  0.500000000000000 ]
    mass: 14.006700
  - symbol: N  # 77
    coordinates: [  0.046424733552172,  0.666852280949757,  0.500000000000000 ]
    mass: 14.006700
  - symbol: N  # 78
    coordinates: [  0.191856118826162,  0.666852280949757,  0.500000000000000 ]
    mass: 14.006700
  - symbol: N  # 79
    coordinates: [  0.337779306385451,  0.666887935734100,  0.500000000000000 ]
    mass: 14.006700
  - symbol: N  # 80
    coordinates: [  0.486156995235850,  0.667107598813049,  0.500000000000000 ]
    mass: 14.006700
  - symbol: N  # 81
    coordinates: [  0.752379175005769,  0.667107598813049,  0.500000000000000 ]
    mass: 14.006700
  - symbol: N  # 82
    coordinates: [  0.900537200777226,  0.666887935734100,  0.500000000000000 ]
    mass: 14.006700
  - symbol: N  # 83
    coordinates: [  0.045825617456764,  0.808793650765279,  0.500000000000000 ]
    mass: 14.006700
  - symbol: N  # 84
    coordinates: [  0.190095801635836,  0.808763031843102,  0.500000000000000 ]
    mass: 14.006700
  - symbol: N  # 85
    coordinates: [  0.334396604737092,  0.808793650765279,  0.500000000000000 ]
    mass: 14.006700
  - symbol: N  # 86
    coordinates: [  0.478448719547782,  0.808970688557636,  0.500000000000000 ]
    mass: 14.006700
  - symbol: N  # 87
    coordinates: [  0.622094869319471,  0.811294743781504,  0.500000000000000 ]
    mass: 14.006700
  - symbol: N  # 88
    coordinates: [  0.760628445890603,  0.811294743781504,  0.500000000000000 ]
    mass: 14.006700
  - symbol: N  # 89
    coordinates: [  0.901950540438424,  0.808970688557636,  0.500000000000000 ]
    mass: 14.006700
  - symbol: N  # 90
    coordinates: [  0.046291566240320,  0.951543862248547,  0.500000000000000 ]
    mass: 14.006700
  - symbol: N  # 91
    coordinates: [  0.189482906756636,  0.951130367966226,  0.500000000000000 ]
    mass: 14.006700
  - symbol: N  # 92
    coordinates: [  0.333076032638166,  0.951130367966226,  0.500000000000000 ]
    mass: 14.006700
  - symbol: N  # 93
    coordinates: [  0.476680867436804,  0.951543862248547,  0.500000000000000 ]
    mass: 14.006700
  - symbol: N  # 94
    coordinates: [  0.620157510497458,  0.953137404743354,  0.500000000000000 ]
    mass: 14.006700
  - symbol: N  # 95
    coordinates: [  0.763557721319433,  0.955686871210297,  0.500000000000000 ]
    mass: 14.006700
  - symbol: N  # 96
    coordinates: [  0.904408465674472,  0.953137404743354,  0.500000000000000 ]
    mass: 14.006700
  - symbol: C  # 97
    coordinates: [  0.568308725498765,  0.565188879568961,  0.500000000000000 ]
    mass: 12.010700
  reciprocal_lattice: # without 2pi
  - [     0.056819252625481,     0.032804610798475,     0.000000000000000 ] # a*
  - [     0.000000000000000,     0.065609221596949,     0.000000000000000 ] # b*
  - [     0.000000000000000,     0.000000000000000,     0.050196986900136 ] # c*

unit_cell:
  lattice:
  - [    17.599668312982089,     0.000000000000000,     0.000000000000000 ] # a
  - [    -8.799834156491045,    15.241759857222506,     0.000000000000000 ] # b
  - [     0.000000000000000,     0.000000000000000,    19.921514452439983 ] # c
  points:
  - symbol: B  # 1
    coordinates: [ -0.000569901469354,  0.000059921619058,  0.500000000000000 ]
    mass: 10.811000
    reduced_to: 1
  - symbol: B  # 2
    coordinates: [  0.141647057904669, -0.001281045857924,  0.500000000000000 ]
    mass: 10.811000
    reduced_to: 2
  - symbol: B  # 3
    coordinates: [  0.284922602436297, -0.001583366555976,  0.500000000000000 ]
    mass: 10.811000
    reduced_to: 3
  - symbol: B  # 4
    coordinates: [  0.428500467665984, -0.001281045857924,  0.500000000000000 ]
    mass: 10.811000
    reduced_to: 4
  - symbol: B  # 5
    coordinates: [  0.572058394516981,  0.000059921619058,  0.500000000000000 ]
    mass: 10.811000
    reduced_to: 5
  - symbol: B  # 6
    coordinates: [  0.715306551835897,  0.002142920434707,  0.500000000000000 ]
    mass: 10.811000
    reduced_to: 6
  - symbol: B  # 7
    coordinates: [  0.858264940027379,  0.002142920434707,  0.500000000000000 ]
    mass: 10.811000
    reduced_to: 7
  - symbol: B  # 8
    coordinates: [  0.000807917139170,  0.144082639988960,  0.500000000000000 ]
    mass: 10.811000
    reduced_to: 8
  - symbol: B  # 9
    coordinates: [  0.142593549790335,  0.142447834994910,  0.500000000000000 ]
    mass: 10.811000
    reduced_to: 9
  - symbol: B  # 10
    coordinates: [  0.284702211745970,  0.141129719085944,  0.500000000000000 ]
    mass: 10.811000
    reduced_to: 10
  - symbol: B  # 11
    coordinates: [  0.427856078768543,  0.141129719085944,  0.500000000000000 ]
    mass: 10.811000
    reduced_to: 11
  - symbol: B  # 12
    coordinates: [  0.571282856633144,  0.142447834994910,  0.500000000000000 ]
    mass: 10.811000
    reduced_to: 12
  - symbol: B  # 13
    coordinates: [  0.714703294278359,  0.144082639988960,  0.500000000000000 ]
    mass: 10.811000
    reduced_to: 13
  - symbol: B  # 14
    coordinates: [  0.858052629256687,  0.144676687084811,  0.500000000000000 ]
    mass: 10.811000
    reduced_to: 14
  - symbol: B  # 15
    coordinates: [  0.000954759639563,  0.287130105005760,  0.500000000000000 ]
    mass: 10.811000
    reduced_to: 15
  - symbol: B  # 16
    coordinates: [  0.143725524626778,  0.286453696267978,  0.500000000000000 ]
    mass: 10.811000
    reduced_to: 16
  - symbol: B  # 17
    coordinates: [  0.285409771951985,  0.284693736418344,  0.500000000000000 ]
    mass: 10.811000
    reduced_to: 17
  - symbol: B  # 18
    coordinates: [  0.427244310318088,  0.283060049207600,  0.500000000000000 ]
    mass: 10.811000
    reduced_to: 18
  - symbol: B  # 19
    coordinates: [  0.570712535894928,  0.284693736418344,  0.500000000000000 ]
    mass: 10.811000
    reduced_to: 19
  - symbol: B  # 20
    coordinates: [  0.714156743069776,  0.286453696267978,  0.500000000000000 ]
    mass: 10.811000
    reduced_to: 20
  - symbol: B  # 21
    coordinates: [  0.857603916794766,  0.287130105005760,  0.500000000000000 ]
    mass: 10.811000
    reduced_to: 21
  - symbol: B  # 22
    coordinates: [  0.000544789116600,  0.429661006804631,  0.500000000000000 ]
    mass: 10.811000
    reduced_to: 22
  - symbol: B  # 23
    coordinates: [  0.144226898329009,  0.429575514105810,  0.500000000000000 ]
    mass: 10.811000
    reduced_to: 23
  - symbol: B  # 24
    coordinates: [  0.287302127215615,  0.429180054314441,  0.500000000000000 ]
    mass: 10.811000
    reduced_to: 24
  - symbol: B  # 25
    coordinates: [  0.427976535364478,  0.425697259185706,  0.500000000000000 ]
    mass: 10.811000
    reduced_to: 25
  - symbol: B  # 26
    coordinates: [  0.569149295249796,  0.425697259185706,  0.500000000000000 ]
    mass: 10.811000
    reduced_to: 26
  - symbol: B  # 27
    coordinates: [  0.713306498527395,  0.429180054314441,  0.500000000000000 ]
    mass: 10.811000
    reduced_to: 27
  - symbol: B  # 28
    coordinates: [  0.856777187205371,  0.429575514105810,  0.500000000000000 ]
    mass: 10.811000
    reduced_to: 28
  - symbol: B  # 29
    coordinates: [ -0.000717450606110,  0.571814622795143,  0.500000000000000 ]
    mass: 10.811000
    reduced_to: 29
  - symbol: B  # 30
    coordinates: [  0.143960644829829,  0.571814622795143,  0.500000000000000 ]
    mass: 10.811000
    reduced_to: 30
  - symbol: B  # 31
    coordinates: [  0.288627869876343,  0.571816247309018,  0.500000000000000 ]
    mass: 10.811000
    reduced_to: 31
  - symbol: B  # 32
    coordinates: [  0.433132091735913,  0.572155643538021,  0.500000000000000 ]
    mass: 10.811000
    reduced_to: 32
  - symbol: B  # 33
    coordinates: [  0.710452123230685,  0.572155643538021,  0.500000000000000 ]
    mass: 10.811000
    reduced_to: 33
  - symbol: B  # 34
    coordinates: [  0.854616948861244,  0.571816247309018,  0.500000000000000 ]
    mass: 10.811000
    reduced_to: 34
  - symbol: B  # 35
    coordinates: [ -0.002927663682257,  0.713705184619728,  0.500000000000000 ]
    mass: 10.811000
    reduced_to: 35
  - symbol: B  # 36
    coordinates: [  0.142555193266986,  0.713681815105395,  0.500000000000000 ]
    mass: 10.811000
    reduced_to: 36
  - symbol: B  # 37
    coordinates: [  0.288061419730555,  0.713705184619728,  0.500000000000000 ]
    mass: 10.811000
    reduced_to: 37
  - symbol: B  # 38
    coordinates: [  0.434641914078501,  0.713825404960851,  0.500000000000000 ]
    mass: 10.811000
    reduced_to: 38
  - symbol: B  # 39
    coordinates: [  0.585108261425077,  0.716269365244394,  0.500000000000000 ]
    mass: 10.811000
    reduced_to: 39
  - symbol: B  # 40
    coordinates: [  0.702589675247886,  0.716269365244394,  0.500000000000000 ]
    mass: 10.811000
    reduced_to: 40
  - symbol: B  # 41
    coordinates: [  0.850612062310920,  0.713825404960851,  0.500000000000000 ]
    mass: 10.811000
    reduced_to: 41
  - symbol: B  # 42
    coordinates: [ -0.002228250465845,  0.856134927159479,  0.500000000000000 ]
    mass: 10.811000
    reduced_to: 42
  - symbol: B  # 43
    coordinates: [  0.141608980770152,  0.855912876526120,  0.500000000000000 ]
    mass: 10.811000
    reduced_to: 43
  - symbol: B  # 44
    coordinates: [  0.285732467184545,  0.855912876526120,  0.500000000000000 ]
    mass: 10.811000
    reduced_to: 44
  - symbol: B  # 45
    coordinates: [  0.429791749053900,  0.856134927159479,  0.500000000000000 ]
    mass: 10.811000
    reduced_to: 45
  - symbol: B  # 46
    coordinates: [  0.573425410488197,  0.857586903756307,  0.500000000000000 ]
    mass: 10.811000
    reduced_to: 46
  - symbol: B  # 47
    coordinates: [  0.716406333437867,  0.861384095447156,  0.500000000000000 ]
    mass: 10.811000
    reduced_to: 47
  - symbol: B  # 48
    coordinates: [  0.855590064696680,  0.857586903756307,  0.500000000000000 ]
    mass: 10.811000
    reduced_to: 48
  - symbol: N  # 49
    coordinates: [  0.047542698836420,  0.095477882930706,  0.500000000000000 ]
    mass: 14.006700
    reduced_to: 49
  - symbol: N  # 50
    coordinates: [  0.189578325086111,  0.094056566873214,  0.500000000000000 ]
    mass: 14.006700
    reduced_to: 50
  - symbol: N  # 51
    coordinates: [  0.332541815188519,  0.093655058948462,  0.500000000000000 ]
    mass: 14.006700
    reduced_to: 51
  - symbol: N  # 52
    coordinates: [  0.475906813215672,  0.094056566873214,  0.500000000000000 ]
    mass: 14.006700
    reduced_to: 52
  - symbol: N  # 53
    coordinates: [  0.619363755522861,  0.095477882930706,  0.500000000000000 ]
    mass: 14.006700
    reduced_to: 53
  - symbol: N  # 54
    coordinates: [  0.762800042705542,  0.097192736050358,  0.500000000000000 ]
    mass: 14.006700
    reduced_to: 54
  - symbol: N  # 55
    coordinates: [  0.905821264773386,  0.097192736050358,  0.500000000000000 ]
    mass: 14.006700
    reduced_to: 55
  - symbol: N  # 56
    coordinates: [  0.048549826576563,  0.239342809927454,  0.500000000000000 ]
    mass: 14.006700
    reduced_to: 56
  - symbol: N  # 57
    coordinates: [  0.190481382607771,  0.237829616545316,  0.500000000000000 ]
    mass: 14.006700
    reduced_to: 57
  - symbol: N  # 58
    coordinates: [  0.332348779385288,  0.236346672764710,  0.500000000000000 ]
    mass: 14.006700
    reduced_to: 58
  - symbol: N  # 59
    coordinates: [  0.475426464807991,  0.236346672764710,  0.500000000000000 ]
    mass: 14.006700
    reduced_to: 59
  - symbol: N  # 60
    coordinates: [  0.618776805366114,  0.237829616545316,  0.500000000000000 ]
    mass: 14.006700
    reduced_to: 60
  - symbol: N  # 61
    coordinates: [  0.762221554779460,  0.239342809927454,  0.500000000000000 ]
    mass: 14.006700
    reduced_to: 61
  - symbol: N  # 62
    coordinates: [  0.905627971627943,  0.239827371827316,  0.500000000000000 ]
    mass: 14.006700
    reduced_to: 62
  - symbol: N  # 63
    coordinates: [  0.048712882686211,  0.382328238584791,  0.500000000000000 ]
    mass: 14.006700
    reduced_to: 63
  - symbol: N  # 64
    coordinates: [  0.191889396315952,  0.381842126130914,  0.500000000000000 ]
    mass: 14.006700
    reduced_to: 64
  - symbol: N  # 65
    coordinates: [  0.333522060677429,  0.380139687013427,  0.500000000000000 ]
    mass: 14.006700
    reduced_to: 65
  - symbol: N  # 66
    coordinates: [  0.474722700562027,  0.378016829695484,  0.500000000000000 ]
    mass: 14.006700
    reduced_to: 66
  - symbol: N  # 67
    coordinates: [  0.618046197764574,  0.380139687013427,  0.500000000000000 ]
    mass: 14.006700
    reduced_to: 67
  - symbol: N  # 68
    coordinates: [  0.761381301243532,  0.381842126130914,  0.500000000000000 ]
    mass: 14.006700
    reduced_to: 68
  - symbol: N  # 69
    coordinates: [  0.905043927327156,  0.382328238584791,  0.500000000000000 ]
    mass: 14.006700
    reduced_to: 69
  - symbol: N  # 70
    coordinates: [  0.048106543462081,  0.524784515495586,  0.500000000000000 ]
    mass: 14.006700
    reduced_to: 70
  - symbol: N  # 71
    coordinates: [  0.192639291970164,  0.524768643048255,  0.500000000000000 ]
    mass: 14.006700
    reduced_to: 71
  - symbol: N  # 72
    coordinates: [  0.336965208832674,  0.524554326627940,  0.500000000000000 ]
    mass: 14.006700
    reduced_to: 72
  - symbol: N  # 73
    coordinates: [  0.478337039350493,  0.521467205629292,  0.500000000000000 ]
    mass: 14.006700
    reduced_to: 73
  - symbol: N  # 74
    coordinates: [  0.614558737707369,  0.521467205629292,  0.500000000000000 ]
    mass: 14.006700
    reduced_to: 74
  - symbol: N  # 75
    coordinates: [  0.759017689223836,  0.524554326627940,  0.500000000000000 ]
    mass: 14.006700
    reduced_to: 75
  - symbol: N  # 76
    coordinates: [  0.903557922506660,  0.524768643048255,  0.500000000000000 ]
    mass: 14.006700
    reduced_to: 76
  - symbol: N  # 77
    coordinates: [  0.046424733552172,  0.666852280949757,  0.500000000000000 ]
    mass: 14.006700
    reduced_to: 77
  - symbol: N  # 78
    coordinates: [  0.191856118826162,  0.666852280949757,  0.500000000000000 ]
    mass: 14.006700
    reduced_to: 78
  - symbol: N  # 79
    coordinates: [  0.337779306385451,  0.666887935734100,  0.500000000000000 ]
    mass: 14.006700
    reduced_to: 79
  - symbol: N  # 80
    coordinates: [  0.486156995235850,  0.667107598813049,  0.500000000000000 ]
    mass: 14.006700
    reduced_to: 80
  - symbol: N  # 81
    coordinates: [  0.752379175005769,  0.667107598813049,  0.500000000000000 ]
    mass: 14.006700
    reduced_to: 81
  - symbol: N  # 82
    coordinates: [  0.900537200777226,  0.666887935734100,  0.500000000000000 ]
    mass: 14.006700
    reduced_to: 82
  - symbol: N  # 83
    coordinates: [  0.045825617456764,  0.808793650765279,  0.500000000000000 ]
    mass: 14.006700
    reduced_to: 83
  - symbol: N  # 84
    coordinates: [  0.190095801635836,  0.808763031843102,  0.500000000000000 ]
    mass: 14.006700
    reduced_to: 84
  - symbol: N  # 85
    coordinates: [  0.334396604737092,  0.808793650765279,  0.500000000000000 ]
    mass: 14.006700
    reduced_to: 85
  - symbol: N  # 86
    coordinates: [  0.478448719547782,  0.808970688557636,  0.500000000000000 ]
    mass: 14.006700
    reduced_to: 86
  - symbol: N  # 87
    coordinates: [  0.622094869319471,  0.811294743781504,  0.500000000000000 ]
    mass: 14.006700
    reduced_to: 87
  - symbol: N  # 88
    coordinates: [  0.760628445890603,  0.811294743781504,  0.500000000000000 ]
    mass: 14.006700
    reduced_to: 88
  - symbol: N  # 89
    coordinates: [  0.901950540438424,  0.808970688557636,  0.500000000000000 ]
    mass: 14.006700
    reduced_to: 89
  - symbol: N  # 90
    coordinates: [  0.046291566240320,  0.951543862248547,  0.500000000000000 ]
    mass: 14.006700
    reduced_to: 90
  - symbol: N  # 91
    coordinates: [  0.189482906756636,  0.951130367966226,  0.500000000000000 ]
    mass: 14.006700
    reduced_to: 91
  - symbol: N  # 92
    coordinates: [  0.333076032638166,  0.951130367966226,  0.500000000000000 ]
    mass: 14.006700
    reduced_to: 92
  - symbol: N  # 93
    coordinates: [  0.476680867436804,  0.951543862248547,  0.500000000000000 ]
    mass: 14.006700
    reduced_to: 93
  - symbol: N  # 94
    coordinates: [  0.620157510497458,  0.953137404743354,  0.500000000000000 ]
    mass: 14.006700
    reduced_to: 94
  - symbol: N  # 95
    coordinates: [  0.763557721319433,  0.955686871210297,  0.500000000000000 ]
    mass: 14.006700
    reduced_to: 95
  - symbol: N  # 96
    coordinates: [  0.904408465674472,  0.953137404743354,  0.500000000000000 ]
    mass: 14.006700
    reduced_to: 96
  - symbol: C  # 97
    coordinates: [  0.568308725498765,  0.565188879568961,  0.500000000000000 ]
    mass: 12.010700
    reduced_to: 97

supercell:
  lattice:
  - [    17.599668312982089,     0.000000000000000,     0.000000000000000 ] # a
  - [    -8.799834156491045,    15.241759857222506,     0.000000000000000 ] # b
  - [     0.000000000000000,     0.000000000000000,    19.921514452439983 ] # c
  points:
  - symbol: B  # 1
    coordinates: [  0.999430098530646,  0.000059921619058,  0.500000000000000 ]
    mass: 10.811000
    reduced_to: 1
  - symbol: B  # 2
    coordinates: [  0.141647057904669,  0.998718954142076,  0.500000000000000 ]
    mass: 10.811000
    reduced_to: 2
  - symbol: B  # 3
    coordinates: [  0.284922602436297,  0.998416633444024,  0.500000000000000 ]
    mass: 10.811000
    reduced_to: 3
  - symbol: B  # 4
    coordinates: [  0.428500467665984,  0.998718954142076,  0.500000000000000 ]
    mass: 10.811000
    reduced_to: 4
  - symbol: B  # 5
    coordinates: [  0.572058394516981,  0.000059921619058,  0.500000000000000 ]
    mass: 10.811000
    reduced_to: 5
  - symbol: B  # 6
    coordinates: [  0.715306551835897,  0.002142920434707,  0.500000000000000 ]
    mass: 10.811000
    reduced_to: 6
  - symbol: B  # 7
    coordinates: [  0.858264940027379,  0.002142920434707,  0.500000000000000 ]
    mass: 10.811000
    reduced_to: 7
  - symbol: B  # 8
    coordinates: [  0.000807917139170,  0.144082639988960,  0.500000000000000 ]
    mass: 10.811000
    reduced_to: 8
  - symbol: B  # 9
    coordinates: [  0.142593549790335,  0.142447834994910,  0.500000000000000 ]
    mass: 10.811000
    reduced_to: 9
  - symbol: B  # 10
    coordinates: [  0.284702211745970,  0.141129719085944,  0.500000000000000 ]
    mass: 10.811000
    reduced_to: 10
  - symbol: B  # 11
    coordinates: [  0.427856078768543,  0.141129719085944,  0.500000000000000 ]
    mass: 10.811000
    reduced_to: 11
  - symbol: B  # 12
    coordinates: [  0.571282856633144,  0.142447834994910,  0.500000000000000 ]
    mass: 10.811000
    reduced_to: 12
  - symbol: B  # 13
    coordinates: [  0.714703294278359,  0.144082639988960,  0.500000000000000 ]
    mass: 10.811000
    reduced_to: 13
  - symbol: B  # 14
    coordinates: [  0.858052629256687,  0.144676687084811,  0.500000000000000 ]
    mass: 10.811000
    reduced_to: 14
  - symbol: B  # 15
    coordinates: [  0.000954759639563,  0.287130105005760,  0.500000000000000 ]
    mass: 10.811000
    reduced_to: 15
  - symbol: B  # 16
    coordinates: [  0.143725524626778,  0.286453696267978,  0.500000000000000 ]
    mass: 10.811000
    reduced_to: 16
  - symbol: B  # 17
    coordinates: [  0.285409771951985,  0.284693736418344,  0.500000000000000 ]
    mass: 10.811000
    reduced_to: 17
  - symbol: B  # 18
    coordinates: [  0.427244310318088,  0.283060049207600,  0.500000000000000 ]
    mass: 10.811000
    reduced_to: 18
  - symbol: B  # 19
    coordinates: [  0.570712535894928,  0.284693736418344,  0.500000000000000 ]
    mass: 10.811000
    reduced_to: 19
  - symbol: B  # 20
    coordinates: [  0.714156743069776,  0.286453696267978,  0.500000000000000 ]
    mass: 10.811000
    reduced_to: 20
  - symbol: B  # 21
    coordinates: [  0.857603916794766,  0.287130105005760,  0.500000000000000 ]
    mass: 10.811000
    reduced_to: 21
  - symbol: B  # 22
    coordinates: [  0.000544789116600,  0.429661006804631,  0.500000000000000 ]
    mass: 10.811000
    reduced_to: 22
  - symbol: B  # 23
    coordinates: [  0.144226898329009,  0.429575514105810,  0.500000000000000 ]
    mass: 10.811000
    reduced_to: 23
  - symbol: B  # 24