<?xml version="1.0" encoding="ISO-8859-1"?>
<modeling>
 <generator>
  <i name="program" type="string">vasp </i>
  <i name="version" type="string">5.4.4.18Apr17-6-g9f103f2a35  </i>
  <i name="subversion" type="string">(build Oct 18 2020 22:16:12) gamma-only         parallel </i>
  <i name="platform" type="string">UA-vaughan-2020a </i>
  <i name="date" type="string">2023 03 30 </i>
  <i name="time" type="string">13:42:03 </i>
 </generator>
 <incar>
  <i type="string" name="PREC">accurate</i>
  <i type="int" name="IALGO">    38</i>
  <i type="logical" name="ADDGRID"> T  </i>
  <i type="int" name="NELMIN">     5</i>
  <i type="int" name="IBRION">    -1</i>
  <i name="EDIFF">      0.00000001</i>
  <i name="EDIFFG">     -0.00000001</i>
  <i type="int" name="NSW">     0</i>
  <i type="int" name="ISIF">     2</i>
  <i name="ENCUT">    500.00000000</i>
  <i type="logical" name="LREAL"> F  </i>
  <i type="int" name="ISMEAR">     0</i>
  <i name="SIGMA">      0.01000000</i>
  <i type="logical" name="LWAVE"> F  </i>
  <i type="logical" name="LCHARG"> F  </i>
  <v type="int" name="KPOINT_BSE">    -1     0     0     0</v>
 </incar>
 <structure name="primitive_cell" >
  <crystal>
   <varray name="basis" >
    <v>      15.94995499       0.00000000       0.00000000 </v>
    <v>      -7.97497749      13.81306621       0.00000000 </v>
    <v>       0.00000000       0.00000000      21.14717293 </v>
   </varray>
   <i name="volume">   4659.09828272 </i>
   <varray name="rec_basis" >
    <v>       0.06269610       0.03619761       0.00000000 </v>
    <v>       0.00000000       0.07239522       0.00000000 </v>
    <v>       0.00000000       0.00000000       0.04728764 </v>
   </varray>
  </crystal>
  <varray name="positions" >
   <v>       0.00000000       0.00000000      -0.50000000 </v>
   <v>       0.13371087       0.06666667       0.42659540 </v>
   <v>      -0.06666667      -0.13333333       0.42621787 </v>
   <v>      -0.06666667      -0.13333333      -0.42621787 </v>
   <v>       0.13333333       0.06666667      -0.42621787 </v>
   <v>      -0.06666667       0.06666667       0.42621787 </v>
   <v>      -0.06666667       0.06666667      -0.42621787 </v>
   <v>       0.00000000       0.20000000      -0.50000000 </v>
   <v>       0.20000000       0.20000000      -0.50000000 </v>
   <v>       0.00000000      -0.20000000      -0.50000000 </v>
   <v>      -0.20000000      -0.20000000      -0.50000000 </v>
   <v>       0.20000000       0.00000000      -0.50000000 </v>
   <v>      -0.20000000       0.00000000      -0.50000000 </v>
   <v>       0.13333333       0.26666667       0.42621787 </v>
   <v>       0.13333333      -0.13333333       0.42621787 </v>
   <v>      -0.26666667      -0.13333333       0.42621787 </v>
   <v>       0.13333333       0.26666667      -0.42621787 </v>
   <v>       0.13333333      -0.13333333      -0.42621787 </v>
   <v>      -0.26666667      -0.13333333      -0.42621787 </v>
   <v>       0.33333333       0.26666667       0.42621787 </v>
   <v>      -0.06666667       0.26666667       0.42621787 </v>
   <v>      -0.26666667      -0.33333333       0.42621787 </v>
   <v>      -0.06666667      -0.33333333       0.42621787 </v>
   <v>       0.33333333       0.26666667      -0.42621787 </v>
   <v>      -0.06666667       0.26666667      -0.42621787 </v>
   <v>      -0.26666667      -0.33333333      -0.42621787 </v>
   <v>      -0.06666667      -0.33333333      -0.42621787 </v>
   <v>       0.33333333       0.06666667       0.42621787 </v>
   <v>      -0.26666667       0.06666667       0.42621787 </v>
   <v>       0.33333333       0.06666667      -0.42621787 </v>
   <v>      -0.26666667       0.06666667      -0.42621787 </v>
   <v>       0.40000000       0.20000000      -0.50000000 </v>
   <v>       0.20000000       0.40000000      -0.50000000 </v>
   <v>      -0.20000000      -0.40000000      -0.50000000 </v>
   <v>      -0.40000000      -0.20000000      -0.50000000 </v>
   <v>      -0.20000000       0.20000000      -0.50000000 </v>
   <v>       0.20000000      -0.20000000      -0.50000000 </v>
   <v>       0.40000000       0.00000000      -0.50000000 </v>
   <v>      -0.40000000       0.00000000      -0.50000000 </v>
   <v>       0.00000000       0.40000000      -0.50000000 </v>
   <v>       0.40000000       0.40000000      -0.50000000 </v>
   <v>       0.00000000      -0.40000000      -0.50000000 </v>
   <v>      -0.40000000      -0.40000000      -0.50000000 </v>
   <v>       0.13333333       0.46666667       0.42621787 </v>
   <v>       0.33333333       0.46666667       0.42621787 </v>
   <v>       0.13333333       0.46666667      -0.42621787 </v>
   <v>       0.33333333       0.46666667      -0.42621787 </v>
   <v>       0.13333333      -0.33333333       0.42621787 </v>
   <v>      -0.46666667      -0.33333333       0.42621787 </v>
   <v>       0.33333333      -0.13333333       0.42621787 </v>
   <v>      -0.46666667      -0.13333333       0.42621787 </v>
   <v>       0.13333333      -0.33333333      -0.42621787 </v>
   <v>      -0.46666667      -0.33333333      -0.42621787 </v>
   <v>       0.33333333      -0.13333333      -0.42621787 </v>
   <v>      -0.46666667      -0.13333333      -0.42621787 </v>
   <v>      -0.26666667       0.46666667       0.42621787 </v>
   <v>      -0.26666667       0.46666667      -0.42621787 </v>
   <v>      -0.46666667       0.26666667       0.42621787 </v>
   <v>      -0.26666667       0.26666667       0.42621787 </v>
   <v>      -0.46666667       0.26666667      -0.42621787 </v>
   <v>      -0.26666667       0.26666667      -0.42621787 </v>
   <v>      -0.06666667       0.46666667       0.42621787 </v>
   <v>      -0.06666667       0.46666667      -0.42621787 </v>
   <v>      -0.46666667       0.06666667       0.42621787 </v>
   <v>      -0.46666667       0.06666667      -0.42621787 </v>
   <v>      -0.46666667       0.46666667       0.42621787 </v>
   <v>      -0.46666667       0.46666667      -0.42621787 </v>
   <v>      -0.40000000       0.20000000      -0.50000000 </v>
   <v>      -0.40000000       0.40000000      -0.50000000 </v>
   <v>      -0.20000000       0.40000000      -0.50000000 </v>
   <v>       0.20000000      -0.40000000      -0.50000000 </v>
   <v>       0.40000000      -0.40000000      -0.50000000 </v>
   <v>       0.40000000      -0.20000000      -0.50000000 </v>
   <v>       0.33333333      -0.33333333       0.42621787 </v>
   <v>       0.33333333      -0.33333333      -0.42621787 </v>
  </varray>
 </structure>
 <varray name="primitive_index" >
  <v type="int" >        1 </v>
  <v type="int" >       26 </v>
  <v type="int" >       50 </v>
  <v type="int" >       75 </v>
  <v type="int" >       51 </v>
  <v type="int" >       30 </v>
  <v type="int" >       55 </v>
  <v type="int" >        6 </v>
  <v type="int" >        7 </v>
  <v type="int" >       21 </v>
  <v type="int" >       25 </v>
  <v type="int" >        2 </v>
  <v type="int" >        5 </v>
  <v type="int" >       31 </v>
  <v type="int" >       46 </v>
  <v type="int" >       49 </v>
  <v type="int" >       56 </v>
  <v type="int" >       71 </v>
  <v type="int" >       74 </v>
  <v type="int" >       32 </v>
  <v type="int" >       35 </v>
  <v type="int" >       44 </v>
  <v type="int" >       45 </v>
  <v type="int" >       57 </v>
  <v type="int" >       60 </v>
  <v type="int" >       69 </v>
  <v type="int" >       70 </v>
  <v type="int" >       27 </v>
  <v type="int" >       29 </v>
  <v type="int" >       52 </v>
  <v type="int" >       54 </v>
  <v type="int" >        8 </v>
  <v type="int" >       12 </v>
  <v type="int" >       20 </v>
  <v type="int" >       24 </v>
  <v type="int" >       10 </v>
  <v type="int" >       22 </v>
  <v type="int" >        3 </v>
  <v type="int" >        4 </v>
  <v type="int" >       11 </v>
  <v type="int" >       13 </v>
  <v type="int" >       16 </v>
  <v type="int" >       19 </v>
  <v type="int" >       36 </v>
  <v type="int" >       37 </v>
  <v type="int" >       61 </v>
  <v type="int" >       62 </v>
  <v type="int" >       41 </v>
  <v type="int" >       43 </v>
  <v type="int" >       47 </v>
  <v type="int" >       48 </v>
  <v type="int" >       66 </v>
  <v type="int" >       68 </v>
  <v type="int" >       72 </v>
  <v type="int" >       73 </v>
  <v type="int" >       39 </v>
  <v type="int" >       64 </v>
  <v type="int" >       33 </v>
  <v type="int" >       34 </v>
  <v type="int" >       58 </v>
  <v type="int" >       59 </v>
  <v type="int" >       40 </v>
  <v type="int" >       65 </v>
  <v type="int" >       28 </v>
  <v type="int" >       53 </v>
  <v type="int" >       38 </v>
  <v type="int" >       63 </v>
  <v type="int" >        9 </v>
  <v type="int" >       14 </v>
  <v type="int" >       15 </v>
  <v type="int" >       17 </v>
  <v type="int" >       18 </v>
  <v type="int" >       23 </v>
  <v type="int" >       42 </v>
  <v type="int" >       67 </v>
 </varray>
 <kpoints>
  <generation param="Gamma">
   <v type="int" name="divisions">       1        1        1 </v>
   <v name="usershift">      0.00000000       0.00000000       0.00000000 </v>
   <v name="genvec1">      1.00000000      -0.00000000       0.00000000 </v>
   <v name="genvec2">      0.00000000       1.00000000       0.00000000 </v>
   <v name="genvec3">      0.00000000       0.00000000       1.00000000 </v>
   <v name="shift">      0.00000000       0.00000000       0.00000000 </v>
  </generation>
  <varray name="kpointlist" >
   <v>       0.00000000       0.00000000       0.00000000 </v>
  </varray>
  <varray name="weights" >
   <v>       1.00000000 </v>
  </varray>
 </kpoints>
 <parameters>
  <separator name="general" >
   <i type="string" name="SYSTEM">unknown system</i>
   <i type="logical" name="LCOMPAT"> F  </i>
  </separator>
  <separator name="electronic" >
   <i type="string" name="PREC">accura</i>
   <i name="ENMAX">    500.00000000</i>
   <i name="ENAUG">    446.01400000</i>
   <i name="EDIFF">      0.00000001</i>
   <i type="int" name="IALGO">    38</i>
   <i type="int" name="IWAVPR">    10</i>
   <i type="int" name="NBANDS">   392</i>
   <i name="NELECT">    650.00000000</i>
   <i type="int" name="TURBO">     0</i>
   <i type="int" name="IRESTART">     0</i>
   <i type="int" name="NREBOOT">     0</i>
   <i type="int" name="NMIN">     0</i>
   <i name="EREF">      0.00000000</i>
   <separator name="electronic smearing" >
    <i type="int" name="ISMEAR">     0</i>
    <i name="SIGMA">      0.01000000</i>
    <i name="KSPACING">      0.50000000</i>
    <i type="logical" name="KGAMMA"> T  </i>
   </separator>
   <separator name="electronic projectors" >
    <i type="logical" name="LREAL"> F  </i>
    <v name="ROPT">      0.00000000      0.00000000</v>
    <i type="int" name="LMAXPAW">  -100</i>
    <i type="int" name="LMAXMIX">     2</i>
    <i type="logical" name="NLSPLINE"> F  </i>
   </separator>
   <separator name="electronic startup" >
    <i type="int" name="ISTART">     0</i>
    <i type="int" name="ICHARG">     2</i>
    <i type="int" name="INIWAV">     1</i>
   </separator>
   <separator name="electronic spin" >
    <i type="int" name="ISPIN">     1</i>
    <i type="logical" name="LNONCOLLINEAR"> F  </i>
    <v name="MAGMOM">      1.00000000      1.00000000      1.00000000      1.00000000      1.00000000      1.00000000      1.00000000      1.00000000      1.00000000      1.00000000      1.00000000      1.00000000      1.00000000      1.00000000      1.00000000      1.00000000      1.00000000      1.00000000      1.00000000      1.00000000
      1.00000000      1.00000000      1.00000000      1.00000000      1.00000000      1.00000000      1.00000000      1.00000000      1.00000000      1.00000000      1.00000000      1.00000000      1.00000000      1.00000000      1.00000000      1.00000000      1.00000000      1.00000000      1.00000000      1.00000000
      1.00000000      1.00000000      1.00000000      1.00000000      1.00000000      1.00000000      1.00000000      1.00000000      1.00000000      1.00000000      1.00000000      1.00000000      1.00000000      1.00000000      1.00000000      1.00000000      1.00000000      1.00000000      1.00000000      1.00000000
      1.00000000      1.00000000      1.00000000      1.00000000      1.00000000      1.00000000      1.00000000      1.00000000      1.00000000      1.00000000      1.00000000      1.00000000      1.00000000      1.00000000      1.00000000</v>
    <i name="NUPDOWN">     -1.00000000</i>
    <i type="logical" name="LSORBIT"> F  </i>
    <v name="SAXIS">      0.00000000      0.00000000      1.00000000</v>
    <i type="logical" name="LSPIRAL"> F  </i>
    <v name="QSPIRAL">      0.00000000      0.00000000      0.00000000</v>
    <i type="logical" name="LZEROZ"> F  </i>
   </separator>
   <separator name="electronic exchange-correlation" >
    <i type="logical" name="LASPH"> F  </i>
    <i type="logical" name="LMETAGGA"> F  </i>
   </separator>
   <separator name="electronic convergence" >
    <i type="int" name="NELM">    60</i>
    <i type="int" name="NELMDL">    -5</i>
    <i type="int" name="NELMIN">     5</i>
    <i name="ENINI">    500.00000000</i>
    <separator name="electronic convergence detail" >
     <i type="logical" name="LDIAG"> T  </i>
     <i type="logical" name="LSUBROT"> F  </i>
     <i name="WEIMIN">      0.00000000</i>
     <i name="EBREAK">      0.00000000</i>
     <i name="DEPER">      0.30000000</i>
     <i type="int" name="NRMM">     4</i>
     <i name="TIME">      0.40000000</i>
    </separator>
   </separator>
   <separator name="electronic mixer" >
    <i name="AMIX">      0.40000000</i>
    <i name="BMIX">      1.00000000</i>
    <i name="AMIN">      0.10000000</i>
    <i name="AMIX_MAG">      1.60000000</i>
    <i name="BMIX_MAG">      1.00000000</i>
    <separator name="electronic mixer details" >
     <i type="int" name="IMIX">     4</i>
     <i type="logical" name="MIXFIRST"> F  </i>
     <i type="int" name="MAXMIX">   -45</i>
     <i name="WC">    100.00000000</i>
     <i type="int" name="INIMIX">     1</i>
     <i type="int" name="MIXPRE">     1</i>
     <i type="int" name="MREMOVE">     5</i>
    </separator>
   </separator>
   <separator name="electronic dipolcorrection" >
    <i type="logical" name="LDIPOL"> F  </i>
    <i type="logical" name="LMONO"> F  </i>
    <i type="int" name="IDIPOL">     0</i>
    <i name="EPSILON">      1.00000000</i>
    <v name="DIPOL">   -100.00000000   -100.00000000   -100.00000000</v>
    <i name="EFIELD">      0.00000000</i>
   </separator>
  </separator>
  <separator name="grids" >
   <i type="int" name="NGX">   120</i>
   <i type="int" name="NGY">   120</i>
   <i type="int" name="NGZ">   160</i>
   <i type="int" name="NGXF">   240</i>
   <i type="int" name="NGYF">   240</i>
   <i type="int" name="NGZF">   320</i>
   <i type="logical" name="ADDGRID"> T  </i>
  </separator>
  <separator name="ionic" >
   <i type="int" name="NSW">     0</i>
   <i type="int" name="IBRION">    -1</i>
   <i type="int" name="MDALGO">     0</i>
   <i type="int" name="ISIF">     2</i>
   <i name="PSTRESS">      0.00000000</i>
   <i name="EDIFFG">     -0.00000001</i>
   <i type="int" name="NFREE">     0</i>
   <i name="POTIM">      0.50000000</i>
   <i name="SMASS">     -3.00000000</i>
   <i name="SCALEE">      1.00000000</i>
  </separator>
  <separator name="ionic md" >
   <i name="TEBEG">      0.00010000</i>
   <i name="TEEND">      0.00010000</i>
   <i type="int" name="NBLOCK">     1</i>
   <i type="int" name="KBLOCK">     1</i>
   <i type="int" name="NPACO">   256</i>
   <i name="APACO">     16.00000000</i>
  </separator>
  <separator name="symmetry" >
   <i type="int" name="ISYM">     2</i>
   <i name="SYMPREC">      0.00001000</i>
  </separator>
  <separator name="dos" >
   <i type="int" name="LORBIT">     0</i>
   <v name="RWIGS">     -1.00000000     -1.00000000</v>
   <i type="int" name="NEDOS">   301</i>
   <i name="EMIN">     10.00000000</i>
   <i name="EMAX">    -10.00000000</i>
   <i name="EFERMI">      0.00000000</i>
  </separator>
  <separator name="writing" >
   <i type="int" name="NWRITE">     2</i>
   <i type="logical" name="LWAVE"> F  </i>
   <i type="logical" name="LDOWNSAMPLE"> F  </i>
   <i type="logical" name="LCHARG"> F  </i>
   <i type="logical" name="LPARD"> F  </i>
   <i type="logical" name="LVTOT"> F  </i>
   <i type="logical" name="LVHAR"> F  </i>
   <i type="logical" name="LELF"> F  </i>
   <i type="logical" name="LOPTICS"> F  </i>
   <v name="STM">      0.00000000      0.00000000      0.00000000      0.00000000      0.00000000      0.00000000      0.00000000</v>
  </separator>
  <separator name="performance" >
   <i type="int" name="NPAR">     4</i>
   <i type="int" name="NSIM">     4</i>
   <i type="int" name="NBLK">    -1</i>
   <i type="logical" name="LPLANE"> T  </i>
   <i type="logical" name="LSCALAPACK"> T  </i>
   <i type="logical" name="LSCAAWARE"> F  </i>
   <i type="logical" name="LSCALU"> F  </i>
   <i type="logical" name="LASYNC"> F  </i>
   <i type="logical" name="LORBITALREAL"> F  </i>
  </separator>
  <separator name="miscellaneous" >
   <i type="int" name="IDIOT">     3</i>
   <i type="int" name="ISPECIAL">     0</i>
   <i type="logical" name="LMUSIC"> F  </i>
   <v name="POMASS">     95.94000000     32.06600000</v>
   <v name="DARWINR">      0.00000000      0.00000000</v>
   <v name="DARWINV">      1.00000000      1.00000000</v>
   <i type="logical" name="LCORR"> T  </i>
  </separator>
  <i type="logical" name="GGA_COMPAT"> T  </i>
  <i type="logical" name="LBERRY"> F  </i>
  <i type="int" name="ICORELEVEL">     0</i>
  <i type="logical" name="LDAU"> F  </i>
  <i type="int" name="I_CONSTRAINED_M">     0</i>
  <separator name="electronic exchange-correlation" >
   <i type="string" name="GGA">--</i>
   <i type="int" name="VOSKOWN">     0</i>
   <i type="logical" name="LHFCALC"> F  </i>
   <i type="string" name="PRECFOCK"></i>
   <i type="logical" name="LSYMGRAD"> F  </i>
   <i type="logical" name="LHFONE"> F  </i>
   <i type="logical" name="LRHFCALC"> F  </i>
   <i type="logical" name="LTHOMAS"> F  </i>
   <i type="logical" name="LMODELHF"> F  </i>
   <i name="ENCUT4O">     -1.00000000</i>
   <i type="int" name="EXXOEP">     0</i>
   <i type="int" name="FOURORBIT">     0</i>
   <i name="AEXX">      0.00000000</i>
   <i name="HFALPHA">      0.00000000</i>
   <i name="MCALPHA">      0.00000000</i>
   <i name="ALDAX">      1.00000000</i>
   <i name="AGGAX">      1.00000000</i>
   <i name="ALDAC">      1.00000000</i>
   <i name="AGGAC">      1.00000000</i>
   <i type="int" name="NKREDX">     1</i>
   <i type="int" name="NKREDY">     1</i>
   <i type="int" name="NKREDZ">     1</i>
   <i type="logical" name="SHIFTRED"> F  </i>
   <i type="logical" name="ODDONLY"> F  </i>
   <i type="logical" name="EVENONLY"> F  </i>
   <i type="int" name="LMAXFOCK">     0</i>
   <i type="int" name="NMAXFOCKAE">     0</i>
   <i type="logical" name="LFOCKAEDFT"> F  </i>
   <i name="HFSCREEN">      0.00000000</i>
   <i name="HFSCREENC">      0.00000000</i>
   <i type="int" name="NBANDSGWLOW">     0</i>
  </separator>
  <separator name="vdW DFT" >
   <i type="logical" name="LUSE_VDW"> F  </i>
   <i name="Zab_VDW">     -0.84910000</i>
   <i name="PARAM1">      0.12340000</i>
   <i name="PARAM2">      1.00000000</i>
   <i name="PARAM3">      0.00000000</i>
  </separator>
  <separator name="model GW" >
   <i type="int" name="MODEL_GW">     0</i>
   <i name="MODEL_EPS0">     37.27278626</i>
   <i name="MODEL_ALPHA">      1.00000000</i>
  </separator>
  <separator name="linear response parameters" >
   <i type="logical" name="LEPSILON"> F  </i>
   <i type="logical" name="LRPA"> F  </i>
   <i type="logical" name="LNABLA"> F  </i>
   <i type="logical" name="LVEL"> F  </i>
   <i type="int" name="KINTER">     0</i>
   <i name="CSHIFT">      0.10000000</i>
   <i name="OMEGAMAX">     -1.00000000</i>
   <i name="DEG_THRESHOLD">      0.00200000</i>
   <i name="RTIME">     -0.10000000</i>
   <i name="WPLASMAI">      0.00000000</i>
   <v name="DFIELD">      0.00000000      0.00000000      0.00000000</v>
   <v name="WPLASMA">      0.00000000      0.00000000      0.00000000      0.00000000      0.00000000      0.00000000      0.00000000      0.00000000      0.00000000</v>
  </separator>
  <separator name="orbital magnetization" >
   <i type="logical" name="NUCIND"> F  </i>
   <v name="MAGPOS">      0.00000000      0.00000000      0.00000000</v>
   <i type="logical" name="LNICSALL"> T  </i>
   <i type="logical" name="ORBITALMAG"> F  </i>
   <i type="logical" name="LMAGBLOCH"> F  </i>
   <i type="logical" name="LCHIMAG"> F  </i>
   <i type="logical" name="LGAUGE"> T  </i>
   <i type="int" name="MAGATOM">     0</i>
   <v name="MAGDIPOL">      0.00000000      0.00000000      0.00000000</v>
   <v name="AVECCONST">      0.00000000      0.00000000      0.00000000</v>
  </separator>
  <separator name="response functions" >
   <i type="logical" name="LADDER"> F  </i>
   <i type="logical" name="LRPAFORCE"> F  </i>
   <i type="logical" name="LFXC"> F  </i>
   <i type="logical" name="LHARTREE"> T  </i>
   <i type="int" name="IBSE">     0</i>
   <v type="int" name="KPOINT">    -1     0     0     0</v>
   <i type="logical" name="LTCTE"> F  </i>
   <i type="logical" name="LTETE"> F  </i>
   <i type="logical" name="LTRIPLET"> F  </i>
   <i type="logical" name="LFXCEPS"> F  </i>
   <i type="logical" name="LFXHEG"> F  </i>
   <i type="int" name="NATURALO">     2</i>
   <i type="logical" name="L2ORDER"> F  </i>
   <i type="logical" name="LMP2LT"> F  </i>
   <i type="logical" name="LUSEW"> F  </i>
   <i name="ENCUTGW">     -2.00000000</i>
   <i name="ENCUTGWSOFT">     -2.00000000</i>
   <i name="ENCUTLF">     -1.00000000</i>
   <i type="int" name="LMAXMP2">    -1</i>
   <i name="SCISSOR">      0.00000000</i>
   <i type="int" name="NOMEGA">     0</i>
   <i type="int" name="NOMEGAR">     0</i>
   <i type="int" name="NBANDSGW">    -1</i>
   <i type="int" name="NBANDSO">    -1</i>
   <i type="int" name="NBANDSV">    -1</i>
   <i type="int" name="NELM">     1</i>
   <i type="int" name="NELMHF">     1</i>
   <i type="int" name="DIM">     3</i>
   <i type="int" name="ANTIRES">     0</i>
   <i name="OMEGAMAX">    -30.00000000</i>
   <i name="OMEGAMIN">    -30.00000000</i>
   <i name="OMEGATL">   -200.00000000</i>
   <i type="int" name="OMEGAGRID">   140</i>
   <i name="CSHIFT">     -0.10000000</i>
   <i type="logical" name="SELFENERGY"> F  </i>
   <i type="logical" name="LSPECTRAL"> F  </i>
   <i type="logical" name="LSPECTRALGW"> F  </i>
   <i type="logical" name="LSINGLES"> F  </i>
   <i type="logical" name="LFERMIGW"> F  </i>
   <i type="logical" name="ODDONLYGW"> F  </i>
   <i type="logical" name="EVENONLYGW"> F  </i>
   <i type="int" name="NKREDLFX">     1</i>
   <i type="int" name="NKREDLFY">     1</i>
   <i type="int" name="NKREDLFZ">     1</i>
   <i type="int" name="MAXMEM">  2800</i>
   <i type="int" name="TELESCOPE">     0</i>
   <i type="int" name="TAUPAR">     1</i>
   <i type="int" name="OMEGAPAR">    -1</i>
   <i name="LAMBDA">      1.00000000</i>
  </separator>
  <separator name="External order field" >
   <i name="OFIELD_KAPPA">      0.00000000</i>
   <v name="OFIELD_K">      0.00000000      0.00000000      0.00000000</v>
   <i name="OFIELD_Q6_NEAR">      0.00000000</i>
   <i name="OFIELD_Q6_FAR">      0.00000000</i>
   <i name="OFIELD_A">      0.00000000</i>
  </separator>
 </parameters>
 <atominfo>
  <atoms>      75 </atoms>
  <types>       2 </types>
  <array name="atoms" >
   <dimension dim="1">ion</dimension>
   <field type="string">element</field>
   <field type="int">atomtype</field>
   <set>
    <rc><c>Mo</c><c>   1</c></rc>
    <rc><c>Mo</c><c>   1</c></rc>
    <rc><c>Mo</c><c>   1</c></rc>
    <rc><c>Mo</c><c>   1</c></rc>
    <rc><c>Mo</c><c>   1</c></rc>
    <rc><c>Mo</c><c>   1</c></rc>
    <rc><c>Mo</c><c>   1</c></rc>
    <rc><c>Mo</c><c>   1</c></rc>
    <rc><c>Mo</c><c>   1</c></rc>
    <rc><c>Mo</c><c>   1</c></rc>
    <rc><c>Mo</c><c>   1</c></rc>
    <rc><c>Mo</c><c>   1</c></rc>
    <rc><c>Mo</c><c>   1</c></rc>
    <rc><c>Mo</c><c>   1</c></rc>
    <rc><c>Mo</c><c>   1</c></rc>
    <rc><c>Mo</c><c>   1</c></rc>
    <rc><c>Mo</c><c>   1</c></rc>
    <rc><c>Mo</c><c>   1</c></rc>
    <rc><c>Mo</c><c>   1</c></rc>
    <rc><c>Mo</c><c>   1</c></rc>
    <rc><c>Mo</c><c>   1</c></rc>
    <rc><c>Mo</c><c>   1</c></rc>
    <rc><c>Mo</c><c>   1</c></rc>
    <rc><c>Mo</c><c>   1</c></rc>
    <rc><c>Mo</c><c>   1</c></rc>
    <rc><c>S </c><c>   2</c></rc>
    <rc><c>S </c><c>   2</c></rc>
    <rc><c>S </c><c>   2</c></rc>
    <rc><c>S </c><c>   2</c></rc>
    <rc><c>S </c><c>   2</c></rc>
    <rc><c>S </c><c>   2</c></rc>
    <rc><c>S </c><c>   2</c></rc>
    <rc><c>S </c><c>   2</c></rc>
    <rc><c>S </c><c>   2</c></rc>
    <rc><c>S </c><c>   2</c></rc>
    <rc><c>S </c><c>   2</c></rc>
    <rc><c>S </c><c>   2</c></rc>
    <rc><c>S </c><c>   2</c></rc>
    <rc><c>S </c><c>   2</c></rc>
    <rc><c>S </c><c>   2</c></rc>
    <rc><c>S </c><c>   2</c></rc>
    <rc><c>S </c><c>   2</c></rc>
    <rc><c>S </c><c>   2</c></rc>
    <rc><c>S </c><c>   2</c></rc>
    <rc><c>S </c><c>   2</c></rc>
    <rc><c>S </c><c>   2</c></rc>
    <rc><c>S </c><c>   2</c></rc>
    <rc><c>S </c><c>   2</c></rc>
    <rc><c>S </c><c>   2</c></rc>
    <rc><c>S </c><c>   2</c></rc>
    <rc><c>S </c><c>   2</c></rc>
    <rc><c>S </c><c>   2</c></rc>
    <rc><c>S </c><c>   2</c></rc>
    <rc><c>S </c><c>   2</c></rc>
    <rc><c>S </c><c>   2</c></rc>
    <rc><c>S </c><c>   2</c></rc>
    <rc><c>S </c><c>   2</c></rc>
    <rc><c>S </c><c>   2</c></rc>
    <rc><c>S </c><c>   2</c></rc>
    <rc><c>S </c><c>   2</c></rc>
    <rc><c>S </c><c>   2</c></rc>
    <rc><c>S </c><c>   2</c></rc>
    <rc><c>S </c><c>   2</c></rc>
    <rc><c>S </c><c>   2</c></rc>
    <rc><c>S </c><c>   2</c></rc>
    <rc><c>S </c><c>   2</c></rc>
    <rc><c>S </c><c>   2</c></rc>
    <rc><c>S </c><c>   2</c></rc>
    <rc><c>S </c><c>   2</c></rc>
    <rc><c>S </c><c>   2</c></rc>
    <rc><c>S </c><c>   2</c></rc>
    <rc><c>S </c><c>   2</c></rc>
    <rc><c>S </c><c>   2</c></rc>
    <rc><c>S </c><c>   2</c></rc>
    <rc><c>S </c><c>   2</c></rc>
   </set>
  </array>
  <array name="atomtypes" >
   <dimension dim="1">type</dimension>
   <field type="int">atomspertype</field>
   <field type="string">element</field>
   <field>mass</field>
   <field>valence</field>
   <field type="string">pseudopotential</field>
   <set>
    <rc><c>  25</c><c>Mo</c><c>     95.94000000</c><c>     14.00000000</c><c>  PAW_PBE Mo_sv 02Feb2006               </c></rc>
    <rc><c>  50</c><c>S </c><c>     32.06600000</c><c>      6.00000000</c><c>  PAW_PBE S 06Sep2000                   </c></rc>
   </set>
  </array>
 </atominfo>
 <structure name="initialpos" >
  <crystal>
   <varray name="basis" >
    <v>      15.94995499       0.00000000       0.00000000 </v>
    <v>      -7.97497749      13.81306621       0.00000000 </v>
    <v>       0.00000000       0.00000000      21.14717293 </v>
   </varray>
   <i name="volume">   4659.09828272 </i>
   <varray name="rec_basis" >
    <v>       0.06269610       0.03619761       0.00000000 </v>
    <v>       0.00000000       0.07239522       0.00000000 </v>
    <v>       0.00000000       0.00000000       0.04728764 </v>
   </varray>
  </crystal>
  <varray name="positions" >
   <v>       0.00000000       0.00000000       0.50000000 </v>
   <v>       0.20000000       0.00000000       0.50000000 </v>
   <v>       0.40000000       0.00000000       0.50000000 </v>
   <v>       0.60000000       0.00000000       0.50000000 </v>
   <v>       0.80000000       0.00000000       0.50000000 </v>
   <v>       0.00000000       0.20000000       0.50000000 </v>
   <v>       0.20000000       0.20000000       0.50000000 </v>
   <v>       0.40000000       0.20000000       0.50000000 </v>
   <v>       0.60000000       0.20000000       0.50000000 </v>
   <v>       0.80000000       0.20000000       0.50000000 </v>
   <v>       0.00000000       0.40000000       0.50000000 </v>
   <v>       0.20000000       0.40000000       0.50000000 </v>
   <v>       0.40000000       0.40000000       0.50000000 </v>
   <v>       0.60000000       0.40000000       0.50000000 </v>
   <v>       0.80000000       0.40000000       0.50000000 </v>
   <v>       0.00000000       0.60000000       0.50000000 </v>
   <v>       0.20000000       0.60000000       0.50000000 </v>
   <v>       0.40000000       0.60000000       0.50000000 </v>
   <v>       0.60000000       0.60000000       0.50000000 </v>
   <v>       0.80000000       0.60000000       0.50000000 </v>
   <v>       0.00000000       0.80000000       0.50000000 </v>
   <v>       0.20000000       0.80000000       0.50000000 </v>
   <v>       0.40000000       0.80000000       0.50000000 </v>
   <v>       0.60000000       0.80000000       0.50000000 </v>
   <v>       0.80000000       0.80000000       0.50000000 </v>
   <v>       0.13371087       0.06666667       0.42659540 </v>
   <v>       0.33333333       0.06666667       0.42621787 </v>
   <v>       0.53333333       0.06666667       0.42621787 </v>
   <v>       0.73333333       0.06666667       0.42621787 </v>
   <v>       0.93333333       0.06666667       0.42621787 </v>
   <v>       0.13333333       0.26666667       0.42621787 </v>
   <v>       0.33333333       0.26666667       0.42621787 </v>
   <v>       0.53333333       0.26666667       0.42621787 </v>
   <v>       0.73333333       0.26666667       0.42621787 </v>
   <v>       0.93333333       0.26666667       0.42621787 </v>
   <v>       0.13333333       0.46666667       0.42621787 </v>
   <v>       0.33333333       0.46666667       0.42621787 </v>
   <v>       0.53333333       0.46666667       0.42621787 </v>
   <v>       0.73333333       0.46666667       0.42621787 </v>
   <v>       0.93333333       0.46666667       0.42621787 </v>
   <v>       0.13333333       0.66666667       0.42621787 </v>
   <v>       0.33333333       0.66666667       0.42621787 </v>
   <v>       0.53333333       0.66666667       0.42621787 </v>
   <v>       0.73333333       0.66666667       0.42621787 </v>
   <v>       0.93333333       0.66666667       0.42621787 </v>
   <v>       0.13333333       0.86666667       0.42621787 </v>
   <v>       0.33333333       0.86666667       0.42621787 </v>
   <v>       0.53333333       0.86666667       0.42621787 </v>
   <v>       0.73333333       0.86666667       0.42621787 </v>
   <v>       0.93333333       0.86666667       0.42621787 </v>
   <v>       0.13333333       0.06666667       0.57378213 </v>
   <v>       0.33333333       0.06666667       0.57378213 </v>
   <v>       0.53333333       0.06666667       0.57378213 </v>
   <v>       0.73333333       0.06666667       0.57378213 </v>
   <v>       0.93333333       0.06666667       0.57378213 </v>
   <v>       0.13333333       0.26666667       0.57378213 </v>
   <v>       0.33333333       0.26666667       0.57378213 </v>
   <v>       0.53333333       0.26666667       0.57378213 </v>
   <v>       0.73333333       0.26666667       0.57378213 </v>
   <v>       0.93333333       0.26666667       0.57378213 </v>
   <v>       0.13333333       0.46666667       0.57378213 </v>
   <v>       0.33333333       0.46666667       0.57378213 </v>
   <v>       0.53333333       0.46666667       0.57378213 </v>
   <v>       0.73333333       0.46666667       0.57378213 </v>
   <v>       0.93333333       0.46666667       0.57378213 </v>
   <v>       0.13333333       0.66666667       0.57378213 </v>
   <v>       0.33333333       0.66666667       0.57378213 </v>
   <v>       0.53333333       0.66666667       0.57378213 </v>
   <v>       0.73333333       0.66666667       0.57378213 </v>
   <v>       0.93333333       0.66666667       0.57378213 </v>
   <v>       0.13333333       0.86666667       0.57378213 </v>
   <v>       0.33333333       0.86666667       0.57378213 </v>
   <v>       0.53333333       0.86666667       0.57378213 </v>
   <v>       0.73333333       0.86666667       0.57378213 </v>
   <v>       0.93333333       0.86666667       0.57378213 </v>
  </varray>
 </structure>
 <calculation>
  <scstep>
   <time name="dav">    3.81    3.85</time>
   <time name="total">    4.25    4.77</time>
   <energy>
    <i name="alphaZ">    634.59989639 </i>
    <i name="ewald"> 153658.95431705 </i>
    <i name="hartreedc">-206100.82673001 </i>
    <i name="XCdc">   2283.42124775 </i>
    <i name="pawpsdc">  48319.72553224 </i>
    <i name="pawaedc"> -47698.10268496 </i>
    <i name="eentropy">     -0.00000002 </i>
    <i name="bandstr">  -3630.39036466 </i>
    <i name="atom">  60398.03285927 </i>
    <i name="e_fr_energy">   7865.41407306 </i>
    <i name="e_wo_entrp">   7865.41407308 </i>
    <i name="e_0_energy">   7865.41407307 </i>
   </energy>
  </scstep>
  <scstep>
   <time name="dav">    4.70    4.80</time>
   <time name="total">    4.70    4.80</time>
   <energy>
    <i name="e_fr_energy">    397.24902365 </i>
    <i name="e_wo_entrp">    397.24902365 </i>
    <i name="e_0_energy">    397.24902365 </i>
   </energy>
  </scstep>
  <scstep>
   <time name="dav">    3.65    3.70</time>
   <time name="total">    3.65    3.70</time>
   <energy>
    <i name="e_fr_energy">   -547.57762059 </i>
    <i name="e_wo_entrp">   -547.57762059 </i>
    <i name="e_0_energy">   -547.57762059 </i>
   </energy>
  </scstep>
  <scstep>
   <time name="dav">    3.92    4.07</time>
   <time name="total">    3.92    4.07</time>
   <energy>
    <i name="e_fr_energy">   -583.36957634 </i>
    <i name="e_wo_entrp">   -583.36957634 </i>
    <i name="e_0_energy">   -583.36957634 </i>
   </energy>
  </scstep>
  <scstep>
   <time name="dav">    4.20    4.30</time>
   <time name="total">    4.65    4.75</time>
   <energy>
    <i name="e_fr_energy">   -584.66086799 </i>
    <i name="e_wo_entrp">   -584.66086799 </i>
    <i name="e_0_energy">   -584.66086799 </i>
   </energy>
  </scstep>
  <scstep>
   <time name="dav">    3.66    3.69</time>
   <time name="total">    4.55    4.61</time>
   <energy>
    <i name="e_fr_energy">   -555.95791483 </i>
    <i name="e_wo_entrp">   -555.95791483 </i>
    <i name="e_0_energy">   -555.95791483 </i>
   </energy>
  </scstep>
  <scstep>
   <time name="dav">    3.66    3.70</time>
   <time name="total">    4.54    4.62</time>
   <energy>
    <i name="e_fr_energy">   -550.53470416 </i>
    <i name="e_wo_entrp">   -550.53470416 </i>
    <i name="e_0_energy">   -550.53470416 </i>
   </energy>
  </scstep>
  <scstep>
   <time name="dav">    3.90    3.94</time>
   <time name="total">    4.79    4.84</time>
   <energy>
    <i name="e_fr_energy">   -546.17057091 </i>
    <i name="e_wo_entrp">   -546.17057091 </i>
    <i name="e_0_energy">   -546.17057091 </i>
   </energy>
  </scstep>
  <scstep>
   <time name="dav">    4.00    4.04</time>
   <time name="total">    4.88    4.97</time>
   <energy>
    <i name="e_fr_energy">   -546.28861859 </i>
    <i name="e_wo_entrp">   -546.28861859 </i>
    <i name="e_0_energy">   -546.28861859 </i>
   </energy>
  </scstep>
  <scstep>
   <time name="dav">    3.90    3.93</time>
   <time name="total">    4.87    4.93</time>
   <energy>
    <i name="e_fr_energy">   -546.15709607 </i>
    <i name="e_wo_entrp">   -546.15709607 </i>
    <i name="e_0_energy">   -546.15709607 </i>
   </energy>
  </scstep>
  <scstep>
   <time name="dav">    3.96    3.99</time>
   <time name="total">    4.85    4.90</time>
   <energy>
    <i name="e_fr_energy">   -546.12612464 </i>
    <i name="e_wo_entrp">   -546.12612464 </i>
    <i name="e_0_energy">   -546.12612464 </i>
   </energy>
  </scstep>
  <scstep>
   <time name="dav">    3.82    3.86</time>
   <time name="total">    4.84    4.92</time>
   <energy>
    <i name="e_fr_energy">   -546.10490670 </i>
    <i name="e_wo_entrp">   -546.10490670 </i>
    <i name="e_0_energy">   -546.10490670 </i>
   </energy>
  </scstep>
  <scstep>
   <time name="dav">    4.48    4.53</time>
   <time name="total">    5.36    5.45</time>
   <energy>
    <i name="e_fr_energy">   -546.10308595 </i>
    <i name="e_wo_entrp">   -546.10308595 </i>
    <i name="e_0_energy">   -546.10308595 </i>
   </energy>
  </scstep>
  <scstep>
   <time name="dav">    3.94    3.97</time>
   <time name="total">    4.82    4.87</time>
   <energy>
    <i name="e_fr_energy">   -546.10285595 </i>
    <i name="e_wo_entrp">   -546.10285595 </i>
    <i name="e_0_energy">   -546.10285595 </i>
   </energy>
  </scstep>
  <scstep>
   <time name="dav">    3.73    3.77</time>
   <time name="total">    4.65    4.80</time>
   <energy>
    <i name="e_fr_energy">   -546.10290346 </i>
    <i name="e_wo_entrp">   -546.10290346 </i>
    <i name="e_0_energy">   -546.10290346 </i>
   </energy>
  </scstep>
  <scstep>
   <time name="dav">    3.78    3.82</time>
   <time name="total">    4.67    4.75</time>
   <energy>
    <i name="e_fr_energy">   -546.10536357 </i>
    <i name="e_wo_entrp">   -546.10536357 </i>
    <i name="e_0_energy">   -546.10536357 </i>
   </energy>
  </scstep>
  <scstep>
   <time name="dav">    3.82    3.85</time>
   <time name="total">    4.71    4.83</time>
   <energy>
    <i name="e_fr_energy">   -546.10905796 </i>
    <i name="e_wo_entrp">   -546.10905796 </i>
    <i name="e_0_energy">   -546.10905796 </i>
   </energy>
  </scstep>
  <scstep>
   <time name="dav">    3.70    3.75</time>
   <time name="total">    4.60    4.68</time>
   <energy>
    <i name="e_fr_energy">   -546.11296843 </i>
    <i name="e_wo_entrp">   -546.11296843 </i>
    <i name="e_0_energy">   -546.11296843 </i>
   </energy>
  </scstep>
  <scstep>
   <time name="dav">    3.96    3.99</time>
   <time name="total">    4.86    4.91</time>
   <energy>
    <i name="e_fr_energy">   -546.11422891 </i>
    <i name="e_wo_entrp">   -546.11422891 </i>
    <i name="e_0_energy">   -546.11422891 </i>
   </energy>
  </scstep>
  <scstep>
   <time name="dav">    3.77    3.80</time>
   <time name="total">    4.66    4.78</time>
   <energy>
    <i name="e_fr_energy">   -546.11488628 </i>
    <i name="e_wo_entrp">   -546.11488628 </i>
    <i name="e_0_energy">   -546.11488628 </i>
   </energy>
  </scstep>
  <scstep>
   <time name="dav">    3.73    3.76</time>
   <time name="total">    4.61    4.69</time>
   <energy>
    <i name="e_fr_energy">   -546.11598103 </i>
    <i name="e_wo_entrp">   -546.11598103 </i>
    <i name="e_0_energy">   -546.11598103 </i>
   </energy>
  </scstep>
  <scstep>
   <time name="dav">    3.81    3.84</time>
   <time name="total">    4.70    4.79</time>
   <energy>
    <i name="e_fr_energy">   -546.11633042 </i>
    <i name="e_wo_entrp">   -546.11633042 </i>
    <i name="e_0_energy">   -546.11633042 </i>
   </energy>
  </scstep>
  <scstep>
   <time name="dav">    3.78    3.82</time>
   <time name="total">    4.67    4.75</time>
   <energy>
    <i name="e_fr_energy">   -546.11646233 </i>
    <i name="e_wo_entrp">   -546.11646233 </i>
    <i name="e_0_energy">   -546.11646233 </i>
   </energy>
  </scstep>
  <scstep>
   <time name="dav">    3.71    3.75</time>
   <time name="total">    4.61    4.66</time>
   <energy>
    <i name="e_fr_energy">   -546.11657569 </i>
    <i name="e_wo_entrp">   -546.11657569 </i>
    <i name="e_0_energy">   -546.11657569 </i>
   </energy>
  </scstep>
  <scstep>
   <time name="dav">    3.75    3.78</time>
   <time name="total">    4.63    4.74</time>
   <energy>
    <i name="e_fr_energy">   -546.11664187 </i>
    <i name="e_wo_entrp">   -546.11664187 </i>
    <i name="e_0_energy">   -546.11664187 </i>
   </energy>
  </scstep>
  <scstep>
   <time name="dav">    3.84    3.87</time>
   <time name="total">    4.73    4.84</time>
   <energy>
    <i name="e_fr_energy">   -546.11665276 </i>
    <i name="e_wo_entrp">   -546.11665276 </i>
    <i name="e_0_energy">   -546.11665276 </i>
   </energy>
  </scstep>
  <scstep>
   <time name="dav">    3.64    3.68</time>
   <time name="total">    4.53    4.74</time>
   <energy>
    <i name="e_fr_energy">   -546.11666500 </i>
    <i name="e_wo_entrp">   -546.11666500 </i>
    <i name="e_0_energy">   -546.11666500 </i>
   </energy>
  </scstep>
  <scstep>
   <time name="dav">    3.57    3.61</time>
   <time name="total">    4.47    4.54</time>
   <energy>
    <i name="e_fr_energy">   -546.11668335 </i>
    <i name="e_wo_entrp">   -546.11668335 </i>
    <i name="e_0_energy">   -546.11668335 </i>
   </energy>
  </scstep>
  <scstep>
   <time name="dav">    3.66    3.70</time>
   <time name="total">    4.56    4.61</time>
   <energy>
    <i name="e_fr_energy">   -546.11669064 </i>
    <i name="e_wo_entrp">   -546.11669064 </i>
    <i name="e_0_energy">   -546.11669064 </i>
   </energy>
  </scstep>
  <scstep>
   <time name="dav">    3.23    3.27</time>
   <time name="total">    4.13    4.29</time>
   <energy>
    <i name="e_fr_energy">   -546.11669681 </i>
    <i name="e_wo_entrp">   -546.11669681 </i>
    <i name="e_0_energy">   -546.11669681 </i>
   </energy>
  </scstep>
  <scstep>
   <time name="dav">    3.16    3.19</time>
   <time name="total">    4.06    4.17</time>
   <energy>
    <i name="e_fr_energy">   -546.11670827 </i>
    <i name="e_wo_entrp">   -546.11670827 </i>
    <i name="e_0_energy">   -546.11670827 </i>
   </energy>
  </scstep>
  <scstep>
   <time name="dav">    3.14    3.17</time>
   <time name="total">    4.03    4.09</time>
   <energy>
    <i name="e_fr_energy">   -546.11671091 </i>
    <i name="e_wo_entrp">   -546.11671091 </i>
    <i name="e_0_energy">   -546.11671091 </i>
   </energy>
  </scstep>
  <scstep>
   <time name="dav">    2.81    2.83</time>
   <time name="total">    3.70    3.76</time>
   <energy>
    <i name="e_fr_energy">   -546.11671194 </i>
    <i name="e_wo_entrp">   -546.11671194 </i>
    <i name="e_0_energy">   -546.11671194 </i>
   </energy>
  </scstep>
  <scstep>
   <time name="dav">    2.71    2.73</time>
   <time name="total">    3.60    3.72</time>
   <energy>
    <i name="e_fr_energy">   -546.11671305 </i>
    <i name="e_wo_entrp">   -546.11671305 </i>
    <i name="e_0_energy">   -546.11671305 </i>
   </energy>
  </scstep>
  <scstep>
   <time name="dav">    2.81    2.85</time>
   <time name="total">    3.71    3.77</time>
   <energy>
    <i name="e_fr_energy">   -546.11671367 </i>
    <i name="e_wo_entrp">   -546.11671367 </i>
    <i name="e_0_energy">   -546.11671367 </i>
   </energy>
  </scstep>
  <scstep>
   <time name="dav">    2.64    2.66</time>
   <time name="total">    3.54    3.58</time>
   <energy>
    <i name="e_fr_energy">   -546.11671375 </i>
    <i name="e_wo_entrp">   -546.11671375 </i>
    <i name="e_0_energy">   -546.11671375 </i>
   </energy>
  </scstep>
  <scstep>
   <time name="dav">    2.52    2.54</time>
   <time name="total">    3.42    3.46</time>
   <energy>
    <i name="e_fr_energy">   -546.11671380 </i>
    <i name="e_wo_entrp">   -546.11671380 </i>
    <i name="e_0_energy">   -546.11671380 </i>
   </energy>
  </scstep>
  <scstep>
   <time name="dav">    2.53    2.55</time>
   <time name="total">    3.42    3.48</time>
   <energy>
    <i name="e_fr_energy">   -546.11671383 </i>
    <i name="e_wo_entrp">   -546.11671383 </i>
    <i name="e_0_energy">   -546.11671383 </i>
   </energy>
  </scstep>
  <scstep>
   <time name="dav">    2.38    2.40</time>
   <time name="total">    2.82    2.93</time>
   <energy>
    <i name="alphaZ">    634.59989639 </i>
    <i name="ewald"> 153658.95431705 </i>
    <i name="hartreedc">-206025.20231911 </i>
    <i name="XCdc">   2269.23334720 </i>
    <i name="pawpsdc">  72950.55903801 </i>
    <i name="pawaedc"> -72424.85043996 </i>
    <i name="eentropy">     -0.00000000 </i>
    <i name="bandstr"> -12007.44341269 </i>
    <i name="atom">  60398.03285927 </i>
    <i name="e_fr_energy">   -546.11671383 </i>
    <i name="e_wo_entrp">   -546.11671383 </i>
    <i name="e_0_energy">   -546.11671383 </i>
   </energy>
  </scstep>
  <structure>
   <crystal>
    <varray name="basis" >
     <v>      15.94995499       0.00000000       0.00000000 </v>
     <v>      -7.97497749      13.81306621       0.00000000 </v>
     <v>       0.00000000       0.00000000      21.14717293 </v>
    </varray>
    <i name="volume">   4659.09828272 </i>
    <varray name="rec_basis" >
     <v>       0.06269610       0.03619761       0.00000000 </v>
     <v>       0.00000000       0.07239522       0.00000000 </v>
     <v>       0.00000000       0.00000000       0.04728764 </v>
    </varray>
   </crystal>
   <varray name="positions" >
    <v>       0.00000000       0.00000000       0.50000000 </v>
    <v>       0.20000000       0.00000000       0.50000000 </v>
    <v>       0.40000000       0.00000000       0.50000000 </v>
    <v>       0.60000000       0.00000000       0.50000000 </v>
    <v>       0.80000000       0.00000000       0.50000000 </v>
    <v>       0.00000000       0.20000000       0.50000000 </v>
    <v>       0.20000000       0.20000000       0.50000000 </v>
    <v>       0.40000000       0.20000000       0.50000000 </v>
    <v>       0.60000000       0.20000000       0.50000000 </v>
    <v>       0.80000000       0.20000000       0.50000000 </v>
    <v>       0.00000000       0.40000000       0.50000000 </v>
    <v>       0.20000000       0.40000000       0.50000000 </v>
    <v>       0.40000000       0.40000000       0.50000000 </v>
    <v>       0.60000000       0.40000000       0.50000000 </v>
    <v>       0.80000000       0.40000000       0.50000000 </v>
    <v>       0.00000000       0.60000000       0.50000000 </v>
    <v>       0.20000000       0.60000000       0.50000000 </v>
    <v>       0.40000000       0.60000000       0.50000000 </v>
    <v>       0.60000000       0.60000000       0.50000000 </v>
    <v>       0.80000000       0.60000000       0.50000000 </v>
    <v>       0.00000000       0.80000000       0.50000000 </v>
    <v>       0.20000000       0.80000000       0.50000000 </v>
    <v>       0.40000000       0.80000000       0.50000000 </v>
    <v>       0.60000000       0.80000000       0.50000000 </v>
    <v>       0.80000000       0.80000000       0.50000000 </v>
    <v>       0.13371087       0.06666667       0.42659540 </v>
    <v>       0.33333333       0.06666667       0.42621787 </v>
    <v>       0.53333333       0.06666667       0.42621787 </v>
    <v>       0.73333333       0.06666667       0.42621787 </v>
    <v>       0.93333333       0.06666667       0.42621787 </v>
    <v>       0.13333333       0.26666667       0.42621787 </v>
    <v>       0.33333333       0.26666667       0.42621787 </v>
    <v>       0.53333333       0.26666667       0.42621787 </v>
    <v>       0.73333333       0.26666667       0.42621787 </v>
    <v>       0.93333333       0.26666667       0.42621787 </v>
    <v>       0.13333333       0.46666667       0.42621787 </v>
    <v>       0.33333333       0.46666667       0.42621787 </v>
    <v>       0.53333333       0.46666667       0.42621787 </v>
    <v>       0.73333333       0.46666667       0.42621787 </v>
    <v>       0.93333333       0.46666667       0.42621787 </v>
    <v>       0.13333333       0.66666667       0.42621787 </v>
    <v>       0.33333333       0.66666667       0.42621787 </v>
    <v>       0.53333333       0.66666667       0.42621787 </v>
    <v>       0.73333333       0.66666667       0.42621787 </v>
    <v>       0.93333333       0.66666667       0.42621787 </v>
    <v>       0.13333333       0.86666667       0.42621787 </v>
    <v>       0.33333333       0.86666667       0.42621787 </v>
    <v>       0.53333333       0.86666667       0.42621787 </v>
    <v>       0.73333333       0.86666667       0.42621787 </v>
    <v>       0.93333333       0.86666667       0.42621787 </v>
    <v>       0.13333333       0.06666667       0.57378213 </v>
    <v>       0.33333333       0.06666667       0.57378213 </v>
    <v>       0.53333333       0.06666667       0.57378213 </v>
    <v>       0.73333333       0.06666667       0.57378213 </v>
    <v>       0.93333333       0.06666667       0.57378213 </v>
    <v>       0.13333333       0.26666667       0.57378213 </v>
    <v>       0.33333333       0.26666667       0.57378213 </v>
    <v>       0.53333333       0.26666667       0.57378213 </v>
    <v>       0.73333333       0.26666667       0.57378213 </v>
    <v>       0.93333333       0.26666667       0.57378213 </v>
    <v>       0.13333333       0.46666667       0.57378213 </v>
    <v>       0.33333333       0.46666667       0.57378213 </v>
    <v>       0.53333333       0.46666667       0.57378213 </v>
    <v>       0.73333333       0.46666667       0.57378213 </v>
    <v>       0.93333333       0.46666667       0.57378213 </v>
    <v>       0.13333333       0.66666667       0.57378213 </v>
    <v>       0.33333333       0.66666667       0.57378213 </v>
    <v>       0.53333333       0.66666667       0.57378213 </v>
    <v>       0.73333333       0.66666667       0.57378213 </v>
    <v>       0.93333333       0.66666667       0.57378213 </v>
    <v>       0.13333333       0.86666667       0.57378213 </v>
    <v>       0.33333333       0.86666667       0.57378213 </v>
    <v>       0.53333333       0.86666667       0.57378213 </v>
    <v>       0.73333333       0.86666667       0.57378213 </v>
    <v>       0.93333333       0.86666667       0.57378213 </v>
   </varray>
  </structure>
  <varray name="forces" >
   <v>       0.00267219      -0.00412864       0.01861047 </v>
   <v>       0.04795819      -0.02200303       0.05504543 </v>
   <v>       0.00027800      -0.00021900       0.00109995 </v>
   <v>       0.00017204       0.00008693      -0.00012350 </v>
   <v>       0.00055436       0.00022447       0.00035751 </v>
   <v>      -0.00007449      -0.00141584       0.00056739 </v>
   <v>       0.00983609       0.02591690       0.03662155 </v>
   <v>       0.00067259       0.00185398       0.00283160 </v>
   <v>      -0.00012996      -0.00013419       0.00005674 </v>
   <v>      -0.00000909      -0.00003313      -0.00015619 </v>
   <v>      -0.00001072       0.00005482      -0.00007943 </v>
   <v>       0.00039023      -0.00074623       0.00055950 </v>
   <v>       0.00025653       0.00049211       0.00090074 </v>
   <v>      -0.00021672      -0.00007552      -0.00002068 </v>
   <v>      -0.00000524      -0.00000001       0.00001558 </v>
   <v>       0.00005073       0.00004824       0.00002685 </v>
   <v>      -0.00006009      -0.00013399      -0.00017814 </v>
   <v>       0.00000054       0.00007539       0.00004324 </v>
   <v>       0.00009134       0.00004662      -0.00006919 </v>
   <v>      -0.00003359       0.00013945      -0.00012728 </v>
   <v>      -0.00253272      -0.00043212       0.00169603 </v>
   <v>      -0.00004962       0.00046466       0.00092934 </v>
   <v>       0.00001835      -0.00001023      -0.00001503 </v>
   <v>      -0.00011130      -0.00006454       0.00010075 </v>
   <v>       0.00010075      -0.00021560       0.00052822 </v>
   <v>      -0.06689652       0.00024761      -0.11615236 </v>
   <v>       0.00333063       0.00005987      -0.00529791 </v>
   <v>      -0.00001521      -0.00002447      -0.00295446 </v>
   <v>      -0.00018733      -0.00010887      -0.00282155 </v>
   <v>       0.00478124       0.00039921      -0.00639947 </v>
   <v>       0.00068072      -0.00298818      -0.00628352 </v>
   <v>       0.00031650       0.00145490      -0.00542523 </v>
   <v>      -0.00005938      -0.00001493      -0.00270967 </v>
   <v>       0.00002196       0.00000490      -0.00277450 </v>
   <v>      -0.00019757       0.00009437      -0.00258815 </v>
   <v>       0.00001610       0.00020987      -0.00281222 </v>
   <v>      -0.00003309       0.00008989      -0.00264851 </v>
   <v>      -0.00001252       0.00000678      -0.00296557 </v>
   <v>       0.00001193       0.00000576      -0.00281761 </v>
   <v>       0.00000400      -0.00001037      -0.00273085 </v>
   <v>       0.00010268      -0.00002489      -0.00287836 </v>
   <v>       0.00006647       0.00002572      -0.00277843 </v>
   <v>      -0.00005044       0.00004166      -0.00277246 </v>
   <v>      -0.00009923      -0.00005932      -0.00289876 </v>
   <v>      -0.00003380      -0.00008064      -0.00264838 </v>
   <v>      -0.00007711      -0.00135167      -0.00573052 </v>
   <v>      -0.00005015       0.00000959      -0.00270078 </v>
   <v>       0.00002183      -0.00006764      -0.00277541 </v>
   <v>      -0.00020420      -0.00009906      -0.00259485 </v>
   <v>       0.00107843       0.00241983      -0.00597375 </v>
   <v>      -0.00168709       0.00000066       0.01693160 </v>
   <v>       0.00233617       0.00189438       0.00395880 </v>
   <v>       0.00001981       0.00006246       0.00275038 </v>
   <v>       0.00000798      -0.00014782       0.00274023 </v>
   <v>      -0.00037818       0.00021960       0.00188605 </v>
   <v>      -0.00225018       0.00054767       0.00310229 </v>
   <v>       0.00093780       0.00074364       0.00273240 </v>
   <v>       0.00009353       0.00005152       0.00254283 </v>
   <v>      -0.00000606       0.00004062       0.00270483 </v>
   <v>       0.00001738      -0.00000740       0.00237483 </v>
   <v>      -0.00002598       0.00008885       0.00271389 </v>
   <v>       0.00000571       0.00013107       0.00245671 </v>
   <v>      -0.00009492      -0.00003554       0.00277662 </v>
   <v>       0.00003527      -0.00002388       0.00272858 </v>
   <v>      -0.00003503      -0.00001672       0.00268123 </v>
   <v>      -0.00002055      -0.00013201       0.00271900 </v>
   <v>       0.00003214       0.00002164       0.00273177 </v>
   <v>      -0.00003149       0.00001451       0.00267892 </v>
   <v>      -0.00010041       0.00016414       0.00277153 </v>
   <v>       0.00000444      -0.00004310       0.00245832 </v>
   <v>      -0.00089369      -0.00350472       0.00414681 </v>
   <v>       0.00016736      -0.00009367       0.00248389 </v>
   <v>      -0.00000585      -0.00003667       0.00270519 </v>
   <v>      -0.00005872      -0.00003759       0.00243091 </v>
   <v>      -0.00040378       0.00006693       0.00170421 </v>
  </varray>
  <varray name="stress" >
   <v>      -1.35405275      -0.00651886       0.02940432 </v>
   <v>      -0.00651885      -1.35405646      -0.00014374 </v>
   <v>       0.02940437      -0.00014371      -0.05008466 </v>
  </varray>
  <energy>
   <i name="e_fr_energy">   -546.11671383 </i>
   <i name="e_wo_entrp">   -546.11671383 </i>
   <i name="e_0_energy">     -0.00000000 </i>
  </energy>
  <time name="totalsc">  181.28  185.36</time>
  <eigenvalues>
   <array>
    <dimension dim="1">band</dimension>
    <dimension dim="2">kpoint</dimension>
    <dimension dim="3">spin</dimension>
    <field>eigene</field>
    <field>occ</field>
    <set>
     <set comment="spin 1">
      <set comment="kpoint 1">
       <r>  -63.1384    1.0000 </r>
       <r>  -63.1260    1.0000 </r>
       <r>  -63.1260    1.0000 </r>
       <r>  -63.1260    1.0000 </r>
       <r>  -63.1259    1.0000 </r>
       <r>  -63.1259    1.0000 </r>
       <r>  -63.1255    1.0000 </r>
       <r>  -63.1096    1.0000 </r>
       <r>  -63.1096    1.0000 </r>
       <r>  -63.1095    1.0000 </r>
       <r>  -63.1094    1.0000 </r>
       <r>  -63.1093    1.0000 </r>
       <r>  -63.1093    1.0000 </r>
       <r>  -63.1057    1.0000 </r>
       <r>  -63.1057    1.0000 </r>
       <r>  -63.1057    1.0000 </r>
       <r>  -63.1055    1.0000 </r>
       <r>  -63.1054    1.0000 </r>
       <r>  -63.1053    1.0000 </r>
       <r>  -63.0994    1.0000 </r>
       <r>  -63.0994    1.0000 </r>
       <r>  -63.0994    1.0000 </r>
       <r>  -63.0993    1.0000 </r>
       <r>  -63.0990    1.0000 </r>
       <r>  -63.0989    1.0000 </r>
       <r>  -37.4047    1.0000 </r>
       <r>  -37.4044    1.0000 </r>
       <r>  -37.4044    1.0000 </r>
       <r>  -37.4044    1.0000 </r>
       <r>  -37.4042    1.0000 </r>
       <r>  -37.4042    1.0000 </r>
       <r>  -37.3968    1.0000 </r>
       <r>  -37.3965    1.0000 </r>
       <r>  -37.3965    1.0000 </r>
       <r>  -37.3965    1.0000 </r>
       <r>  -37.3964    1.0000 </r>
       <r>  -37.3964    1.0000 </r>
       <r>  -37.3346    1.0000 </r>
       <r>  -37.3344    1.0000 </r>
       <r>  -37.3344    1.0000 </r>
       <r>  -37.3343    1.0000 </r>
       <r>  -37.3342    1.0000 </r>
       <r>  -37.3342    1.0000 </r>
       <r>  -37.2734    1.0000 </r>
       <r>  -37.2485    1.0000 </r>
       <r>  -37.2484    1.0000 </r>
       <r>  -37.2484    1.0000 </r>
       <r>  -37.2484    1.0000 </r>
       <r>  -37.2483    1.0000 </r>
       <r>  -37.2481    1.0000 </r>
       <r>  -37.2381    1.0000 </r>
       <r>  -37.2381    1.0000 </r>
       <r>  -37.2381    1.0000 </r>
       <r>  -37.2381    1.0000 </r>
       <r>  -37.2380    1.0000 </r>
       <r>  -37.2378    1.0000 </r>
       <r>  -37.2156    1.0000 </r>
       <r>  -37.2156    1.0000 </r>
       <r>  -37.2155    1.0000 </r>
       <r>  -37.2155    1.0000 </r>
       <r>  -37.2154    1.0000 </r>
       <r>  -37.2153    1.0000 </r>
       <r>  -37.2078    1.0000 </r>
       <r>  -37.2077    1.0000 </r>
       <r>  -37.2077    1.0000 </r>
       <r>  -37.2077    1.0000 </r>
       <r>  -37.2075    1.0000 </r>
       <r>  -37.2074    1.0000 </r>
       <r>  -37.2039    1.0000 </r>
       <r>  -37.2038    1.0000 </r>
       <r>  -37.2038    1.0000 </r>
       <r>  -37.2038    1.0000 </r>
       <r>  -37.2036    1.0000 </r>
       <r>  -37.2035    1.0000 </r>
       <r>  -37.1952    1.0000 </r>
       <r>  -37.1952    1.0000 </r>
       <r>  -37.1951    1.0000 </r>
       <r>  -37.1951    1.0000 </r>
       <r>  -37.1950    1.0000 </r>
       <r>  -37.1948    1.0000 </r>
       <r>  -37.1769    1.0000 </r>
       <r>  -37.1768    1.0000 </r>
       <r>  -37.1768    1.0000 </r>
       <r>  -37.1767    1.0000 </r>
       <r>  -37.1767    1.0000 </r>
       <r>  -37.1765    1.0000 </r>
       <r>  -37.1526    1.0000 </r>
       <r>  -37.1525    1.0000 </r>
       <r>  -37.1524    1.0000 </r>
       <r>  -37.1524    1.0000 </r>
       <r>  -37.1524    1.0000 </r>
       <r>  -37.1521    1.0000 </r>
       <r>  -37.1057    1.0000 </r>
       <r>  -37.1057    1.0000 </r>
       <r>  -37.1056    1.0000 </r>
       <r>  -37.1056    1.0000 </r>
       <r>  -37.1056    1.0000 </r>
       <r>  -37.1055    1.0000 </r>
       <r>  -37.0765    1.0000 </r>
       <r>  -37.0765    1.0000 </r>
       <r>  -16.3130    1.0000 </r>
       <r>  -15.7686    1.0000 </r>
       <r>  -15.7655    1.0000 </r>
       <r>  -15.7655    1.0000 </r>
       <r>  -15.7654    1.0000 </r>
       <r>  -15.7654    1.0000 </r>
       <r>  -15.7652    1.0000 </r>
       <r>  -15.0082    1.0000 </r>
       <r>  -14.9335    1.0000 </r>
       <r>  -14.9305    1.0000 </r>
       <r>  -14.9304    1.0000 </r>
       <r>  -14.9304    1.0000 </r>
       <r>  -14.9303    1.0000 </r>
       <r>  -14.9302    1.0000 </r>
       <r>  -14.7860    1.0000 </r>
       <r>  -14.7853    1.0000 </r>
       <r>  -14.7852    1.0000 </r>
       <r>  -14.7852    1.0000 </r>
       <r>  -14.7851    1.0000 </r>
       <r>  -14.7847    1.0000 </r>
       <r>  -14.6938    1.0000 </r>
       <r>  -14.6908    1.0000 </r>
       <r>  -14.6908    1.0000 </r>
       <r>  -14.6908    1.0000 </r>
       <r>  -14.6907    1.0000 </r>
       <r>  -14.6906    1.0000 </r>
       <r>  -14.4429    1.0000 </r>
       <r>  -14.4416    1.0000 </r>
       <r>  -14.4416    1.0000 </r>
       <r>  -14.4415    1.0000 </r>
       <r>  -14.4415    1.0000 </r>
       <r>  -14.4413    1.0000 </r>
       <r>  -14.3622    1.0000 </r>
       <r>  -14.3607    1.0000 </r>
       <r>  -14.3607    1.0000 </r>
       <r>  -14.3607    1.0000 </r>
       <r>  -14.3606    1.0000 </r>
       <r>  -14.3605    1.0000 </r>
       <r>  -14.3130    1.0000 </r>
       <r>  -14.3102    1.0000 </r>
       <r>  -14.3101    1.0000 </r>
       <r>  -14.3101    1.0000 </r>
       <r>  -14.3100    1.0000 </r>
       <r>  -14.3099    1.0000 </r>
       <r>  -14.1830    1.0000 </r>
       <r>  -14.1814    1.0000 </r>
       <r>  -14.1814    1.0000 </r>
       <r>  -14.1813    1.0000 </r>
       <r>  -14.1813    1.0000 </r>
       <r>  -14.1812    1.0000 </r>
       <r>   -7.8469    1.0000 </r>
       <r>   -7.7739    1.0000 </r>
       <r>   -7.7733    1.0000 </r>
       <r>   -7.7728    1.0000 </r>
       <r>   -7.7723    1.0000 </r>
       <r>   -7.7722    1.0000 </r>
       <r>   -7.7721    1.0000 </r>
       <r>   -7.4433    1.0000 </r>
       <r>   -7.4432    1.0000 </r>
       <r>   -7.4419    1.0000 </r>
       <r>   -7.4419    1.0000 </r>
       <r>   -7.4416    1.0000 </r>
       <r>   -7.4416    1.0000 </r>
       <r>   -7.4001    1.0000 </r>
       <r>   -7.3987    1.0000 </r>
       <r>   -7.3978    1.0000 </r>
       <r>   -7.3978    1.0000 </r>
       <r>   -7.3977    1.0000 </r>
       <r>   -7.3977    1.0000 </r>
       <r>   -7.3214    1.0000 </r>
       <r>   -7.3180    1.0000 </r>
       <r>   -7.3179    1.0000 </r>
       <r>   -7.3178    1.0000 </r>
       <r>   -7.3178    1.0000 </r>
       <r>   -7.3176    1.0000 </r>
       <r>   -7.2730    1.0000 </r>
       <r>   -7.2716    1.0000 </r>
       <r>   -7.2714    1.0000 </r>
       <r>   -7.2707    1.0000 </r>
       <r>   -7.2707    1.0000 </r>
       <r>   -7.2706    1.0000 </r>
       <r>   -6.7738    1.0000 </r>
       <r>   -6.7736    1.0000 </r>
       <r>   -6.7730    1.0000 </r>
       <r>   -6.7728    1.0000 </r>
       <r>   -6.7728    1.0000 </r>
       <r>   -6.7725    1.0000 </r>
       <r>   -6.4441    1.0000 </r>
       <r>   -6.4438    1.0000 </r>
       <r>   -6.4426    1.0000 </r>
       <r>   -6.4425    1.0000 </r>
       <r>   -6.4423    1.0000 </r>
       <r>   -6.4421    1.0000 </r>
       <r>   -6.2144    1.0000 </r>
       <r>   -6.2126    1.0000 </r>
       <r>   -6.2125    1.0000 </r>
       <r>   -6.2123    1.0000 </r>
       <r>   -6.2122    1.0000 </r>
       <r>   -6.2117    1.0000 </r>
       <r>   -6.1613    1.0000 </r>
       <r>   -6.1595    1.0000 </r>
       <r>   -6.1594    1.0000 </r>
       <r>   -6.1591    1.0000 </r>
       <r>   -6.1590    1.0000 </r>
       <r>   -6.1586    1.0000 </r>
       <r>   -5.9775    1.0000 </r>
       <r>   -5.9772    1.0000 </r>
       <r>   -5.9766    1.0000 </r>
       <r>   -5.9765    1.0000 </r>
       <r>   -5.9765    1.0000 </r>
       <r>   -5.9765    1.0000 </r>
       <r>   -5.8360    1.0000 </r>
       <r>   -5.8352    1.0000 </r>
       <r>   -5.8335    1.0000 </r>
       <r>   -5.8335    1.0000 </r>
       <r>   -5.8334    1.0000 </r>
       <r>   -5.8330    1.0000 </r>
       <r>   -5.5524    1.0000 </r>
       <r>   -5.5516    1.0000 </r>
       <r>   -5.5510    1.0000 </r>
       <r>   -5.5509    1.0000 </r>
       <r>   -5.5505    1.0000 </r>
       <r>   -5.5502    1.0000 </r>
       <r>   -5.4166    1.0000 </r>
       <r>   -5.4156    1.0000 </r>
       <r>   -5.4154    1.0000 </r>
       <r>   -5.4151    1.0000 </r>
       <r>   -5.4149    1.0000 </r>
       <r>   -5.4149    1.0000 </r>
       <r>   -5.3237    1.0000 </r>
       <r>   -5.3223    1.0000 </r>
       <r>   -5.3221    1.0000 </r>
       <r>   -5.3220    1.0000 </r>
       <r>   -5.3218    1.0000 </r>
       <r>   -5.3209    1.0000 </r>
       <r>   -5.3040    1.0000 </r>
       <r>   -5.3028    1.0000 </r>
       <r>   -5.3016    1.0000 </r>
       <r>   -5.3015    1.0000 </r>
       <r>   -5.3015    1.0000 </r>
       <r>   -5.3013    1.0000 </r>
       <r>   -4.9743    1.0000 </r>
       <r>   -4.9737    1.0000 </r>
       <r>   -4.9729    1.0000 </r>
       <r>   -4.9728    1.0000 </r>
       <r>   -4.9725    1.0000 </r>
       <r>   -4.9724    1.0000 </r>
       <r>   -4.8762    1.0000 </r>
       <r>   -4.8760    1.0000 </r>
       <r>   -4.4941    1.0000 </r>
       <r>   -4.4925    1.0000 </r>
       <r>   -4.4901    1.0000 </r>
       <r>   -4.4900    1.0000 </r>
       <r>   -4.4899    1.0000 </r>
       <r>   -4.4898    1.0000 </r>
       <r>   -4.4898    1.0000 </r>
       <r>   -4.4898    1.0000 </r>
       <r>   -4.4897    1.0000 </r>
       <r>   -4.4897    1.0000 </r>
       <r>   -4.4894    1.0000 </r>
       <r>   -4.4888    1.0000 </r>
       <r>   -4.3190    1.0000 </r>
       <r>   -4.3185    1.0000 </r>
       <r>   -4.3164    1.0000 </r>
       <r>   -4.3164    1.0000 </r>
       <r>   -4.3164    1.0000 </r>
       <r>   -4.3163    1.0000 </r>
       <r>   -4.1714    1.0000 </r>
       <r>   -4.1713    1.0000 </r>
       <r>   -4.1712    1.0000 </r>
       <r>   -4.1711    1.0000 </r>
       <r>   -4.1708    1.0000 </r>
       <r>   -4.1695    1.0000 </r>
       <r>   -4.0245    1.0000 </r>
       <r>   -4.0244    1.0000 </r>
       <r>   -4.0243    1.0000 </r>
       <r>   -4.0241    1.0000 </r>
       <r>   -4.0240    1.0000 </r>
       <r>   -4.0225    1.0000 </r>
       <r>   -4.0035    1.0000 </r>
       <r>   -3.7760    1.0000 </r>
       <r>   -3.7749    1.0000 </r>
       <r>   -3.4855    1.0000 </r>
       <r>   -3.4850    1.0000 </r>
       <r>   -3.4849    1.0000 </r>
       <r>   -3.4849    1.0000 </r>
       <r>   -3.4846    1.0000 </r>
       <r>   -3.4831    1.0000 </r>
       <r>   -3.4009    1.0000 </r>
       <r>   -3.4008    1.0000 </r>
       <r>   -3.4002    1.0000 </r>
       <r>   -3.4001    1.0000 </r>
       <r>   -3.4000    1.0000 </r>
       <r>   -3.3977    1.0000 </r>
       <r>   -3.3958    1.0000 </r>
       <r>   -3.3955    1.0000 </r>
       <r>   -3.3943    1.0000 </r>
       <r>   -3.3942    1.0000 </r>
       <r>   -3.3942    1.0000 </r>
       <r>   -3.3941    1.0000 </r>
       <r>   -3.0990    1.0000 </r>
       <r>   -3.0985    1.0000 </r>
       <r>   -3.0982    1.0000 </r>
       <r>   -3.0982    1.0000 </r>
       <r>   -3.0981    1.0000 </r>
       <r>   -3.0970    1.0000 </r>
       <r>   -3.0366    1.0000 </r>
       <r>   -3.0365    1.0000 </r>
       <r>   -3.0360    1.0000 </r>
       <r>   -3.0357    1.0000 </r>
       <r>   -3.0354    1.0000 </r>
       <r>   -3.0352    1.0000 </r>
       <r>   -2.6968    1.0000 </r>
       <r>   -2.6963    1.0000 </r>
       <r>   -2.6962    1.0000 </r>
       <r>   -2.6962    1.0000 </r>
       <r>   -2.6958    1.0000 </r>
       <r>   -2.6942    1.0000 </r>
       <r>   -2.5202    1.0000 </r>
       <r>   -2.5200    1.0000 </r>
       <r>   -2.5196    1.0000 </r>
       <r>   -2.5194    1.0000 </r>
       <r>   -2.5192    1.0000 </r>
       <r>   -2.5191    1.0000 </r>
       <r>   -2.2394    1.0000 </r>
       <r>   -0.2600    0.0000 </r>
       <r>   -0.2598    0.0000 </r>
       <r>   -0.2594    0.0000 </r>
       <r>   -0.2594    0.0000 </r>
       <r>   -0.2593    0.0000 </r>
       <r>   -0.2591    0.0000 </r>
       <r>   -0.2316    0.0000 </r>
       <r>   -0.2315    0.0000 </r>
       <r>   -0.2313    0.0000 </r>
       <r>   -0.2308    0.0000 </r>
       <r>   -0.2302    0.0000 </r>
       <r>   -0.2295    0.0000 </r>
       <r>   -0.0744    0.0000 </r>
       <r>   -0.0743    0.0000 </r>
       <r>   -0.0741    0.0000 </r>
       <r>   -0.0740    0.0000 </r>
       <r>   -0.0736    0.0000 </r>
       <r>   -0.0735    0.0000 </r>
       <r>   -0.0487    0.0000 </r>
       <r>   -0.0486    0.0000 </r>
       <r>   -0.0485    0.0000 </r>
       <r>   -0.0476    0.0000 </r>
       <r>   -0.0472    0.0000 </r>
       <r>   -0.0470    0.0000 </r>
       <r>    0.2393    0.0000 </r>
       <r>    0.2395    0.0000 </r>
       <r>    0.2397    0.0000 </r>
       <r>    0.2398    0.0000 </r>
       <r>    0.2406    0.0000 </r>
       <r>    0.2414    0.0000 </r>
       <r>    0.2605    0.0000 </r>
       <r>    0.2607    0.0000 </r>
       <r>    0.2610    0.0000 </r>
       <r>    0.2612    0.0000 </r>
       <r>    0.2616    0.0000 </r>
       <r>    0.2616    0.0000 </r>
       <r>    0.2827    0.0000 </r>
       <r>    0.2829    0.0000 </r>
       <r>    0.2829    0.0000 </r>
       <r>    0.2833    0.0000 </r>
       <r>    0.2837    0.0000 </r>
       <r>    0.2840    0.0000 </r>
       <r>    0.3952    0.0000 </r>
       <r>    0.3956    0.0000 </r>
       <r>    0.3958    0.0000 </r>
       <r>    0.3962    0.0000 </r>
       <r>    0.3966    0.0000 </r>
       <r>    0.3974    0.0000 </r>
       <r>    0.4841    0.0000 </r>
       <r>    0.4853    0.0000 </r>
       <r>    0.6124    0.0000 </r>
       <r>    0.6127    0.0000 </r>
       <r>    0.6128    0.0000 </r>
       <r>    0.6129    0.0000 </r>
       <r>    0.6136    0.0000 </r>
       <r>    0.6146    0.0000 </r>
       <r>    0.7374    0.0000 </r>
       <r>    0.7379    0.0000 </r>
       <r>    0.8942    0.0000 </r>
       <r>    0.8943    0.0000 </r>
       <r>    0.8944    0.0000 </r>
       <r>    0.8946    0.0000 </r>
       <r>    0.8947    0.0000 </r>
       <r>    0.8965    0.0000 </r>
       <r>    1.0843    0.0000 </r>
       <r>    1.0854    0.0000 </r>
       <r>    1.0867    0.0000 </r>
      </set>
     </set>
    </set>
   </array>
  </eigenvalues>
  <separator name="orbital magnetization" >
   <v name="MAGDIPOLOUT">      0.00000000      0.00000000      0.00000000</v>
  </separator>
  <dos>
   <i name="efermi">     -2.17804476 </i>
   <total>
    <array>
     <dimension dim="1">gridpoints</dimension>
     <dimension dim="2">spin</dimension>
     <field>energy</field>
     <field>total</field>
     <field>integrated</field>
     <set>
      <set comment="spin 1">
       <r>   -66.3496     0.0000     0.0000 </r>
       <r>   -66.1141     0.0000     0.0000 </r>
       <r>   -65.8786     0.0000     0.0000 </r>
       <r>   -65.6431     0.0000     0.0000 </r>
       <r>   -65.4077     0.0000     0.0000 </r>
       <r>   -65.1722     0.0000     0.0000 </r>
       <r>   -64.9367     0.0000     0.0000 </r>
       <r>   -64.7012     0.0000     0.0000 </r>
       <r>   -64.4657     0.0000     0.0000 </r>
       <r>   -64.2302     0.0000     0.0000 </r>
       <r>   -63.9947     0.0000     0.0000 </r>
       <r>   -63.7592     0.0000     0.0000 </r>
       <r>   -63.5237     0.0000     0.0000 </r>
       <r>   -63.2882     0.0000     0.0000 </r>
       <r>   -63.0527   203.8286    50.0000 </r>
       <r>   -62.8172     0.0000    50.0000 </r>
       <r>   -62.5818     0.0000    50.0000 </r>
       <r>   -62.3463     0.0000    50.0000 </r>
       <r>   -62.1108     0.0000    50.0000 </r>
       <r>   -61.8753     0.0000    50.0000 </r>
       <r>   -61.6398     0.0000    50.0000 </r>
       <r>   -61.4043     0.0000    50.0000 </r>
       <r>   -61.1688     0.0000    50.0000 </r>
       <r>   -60.9333     0.0000    50.0000 </r>
       <r>   -60.6978     0.0000    50.0000 </r>
       <r>   -60.4623     0.0000    50.0000 </r>
       <r>   -60.2268     0.0000    50.0000 </r>
       <r>   -59.9913     0.0000    50.0000 </r>
       <r>   -59.7558     0.0000    50.0000 </r>
       <r>   -59.5204     0.0000    50.0000 </r>
       <r>   -59.2849     0.0000    50.0000 </r>
       <r>   -59.0494     0.0000    50.0000 </r>
       <r>   -58.8139     0.0000    50.0000 </r>
       <r>   -58.5784     0.0000    50.0000 </r>
       <r>   -58.3429     0.0000    50.0000 </r>
       <r>   -58.1074     0.0000    50.0000 </r>
       <r>   -57.8719     0.0000    50.0000 </r>
       <r>   -57.6364     0.0000    50.0000 </r>
       <r>   -57.4009     0.0000    50.0000 </r>
       <r>   -57.1654     0.0000    50.0000 </r>
       <r>   -56.9299     0.0000    50.0000 </r>
       <r>   -56.6945     0.0000    50.0000 </r>
       <r>   -56.4590     0.0000    50.0000 </r>
       <r>   -56.2235     0.0000    50.0000 </r>
       <r>   -55.9880     0.0000    50.0000 </r>
       <r>   -55.7525     0.0000    50.0000 </r>
       <r>   -55.5170     0.0000    50.0000 </r>
       <r>   -55.2815     0.0000    50.0000 </r>
       <r>   -55.0460     0.0000    50.0000 </r>
       <r>   -54.8105     0.0000    50.0000 </r>
       <r>   -54.5750     0.0000    50.0000 </r>
       <r>   -54.3395     0.0000    50.0000 </r>
       <r>   -54.1040     0.0000    50.0000 </r>
       <r>   -53.8685     0.0000    50.0000 </r>
       <r>   -53.6331     0.0000    50.0000 </r>
       <r>   -53.3976     0.0000    50.0000 </r>
       <r>   -53.1621     0.0000    50.0000 </r>
       <r>   -52.9266     0.0000    50.0000 </r>
       <r>   -52.6911     0.0000    50.0000 </r>
       <r>   -52.4556     0.0000    50.0000 </r>
       <r>   -52.2201     0.0000    50.0000 </r>
       <r>   -51.9846     0.0000    50.0000 </r>
       <r>   -51.7491     0.0000    50.0000 </r>
       <r>   -51.5136     0.0000    50.0000 </r>
       <r>   -51.2781     0.0000    50.0000 </r>
       <r>   -51.0426     0.0000    50.0000 </r>
       <r>   -50.8071     0.0000    50.0000 </r>
       <r>   -50.5717     0.0000    50.0000 </r>
       <r>   -50.3362     0.0000    50.0000 </r>
       <r>   -50.1007     0.0000    50.0000 </r>
       <r>   -49.8652     0.0000    50.0000 </r>
       <r>   -49.6297     0.0000    50.0000 </r>
       <r>   -49.3942     0.0000    50.0000 </r>
       <r>   -49.1587     0.0000    50.0000 </r>
       <r>   -48.9232     0.0000    50.0000 </r>
       <r>   -48.6877     0.0000    50.0000 </r>
       <r>   -48.4522     0.0000    50.0000 </r>
       <r>   -48.2167     0.0000    50.0000 </r>
       <r>   -47.9812     0.0000    50.0000 </r>
       <r>   -47.7458     0.0000    50.0000 </r>
       <r>   -47.5103     0.0000    50.0000 </r>
       <r>   -47.2748     0.0000    50.0000 </r>
       <r>   -47.0393     0.0000    50.0000 </r>
       <r>   -46.8038     0.0000    50.0000 </r>
       <r>   -46.5683     0.0000    50.0000 </r>
       <r>   -46.3328     0.0000    50.0000 </r>
       <r>   -46.0973     0.0000    50.0000 </r>
       <r>   -45.8618     0.0000    50.0000 </r>
       <r>   -45.6263     0.0000    50.0000 </r>
       <r>   -45.3908     0.0000    50.0000 </r>
       <r>   -45.1553     0.0000    50.0000 </r>
       <r>   -44.9198     0.0000    50.0000 </r>
       <r>   -44.6844     0.0000    50.0000 </r>
       <r>   -44.4489     0.0000    50.0000 </r>
       <r>   -44.2134     0.0000    50.0000 </r>
       <r>   -43.9779     0.0000    50.0000 </r>
       <r>   -43.7424     0.0000    50.0000 </r>
       <r>   -43.5069     0.0000    50.0000 </r>
       <r>   -43.2714     0.0000    50.0000 </r>
       <r>   -43.0359     0.0000    50.0000 </r>
       <r>   -42.8004     0.0000    50.0000 </r>
       <r>   -42.5649     0.0000    50.0000 </r>
       <r>   -42.3294     0.0000    50.0000 </r>
       <r>   -42.0939     0.0000    50.0000 </r>
       <r>   -41.8585     0.0000    50.0000 </r>
       <r>   -41.6230     0.0000    50.0000 </r>
       <r>   -41.3875     0.0000    50.0000 </r>
       <r>   -41.1520     0.0000    50.0000 </r>
       <r>   -40.9165     0.0000    50.0000 </r>
       <r>   -40.6810     0.0000    50.0000 </r>
       <r>   -40.4455     0.0000    50.0000 </r>
       <r>   -40.2100     0.0000    50.0000 </r>
       <r>   -39.9745     0.0000    50.0000 </r>
       <r>   -39.7390     0.0000    50.0000 </r>
       <r>   -39.5035     0.0000    50.0000 </r>
       <r>   -39.2680     0.0000    50.0000 </r>
       <r>   -39.0325     0.0000    50.0000 </r>
       <r>   -38.7971     0.0000    50.0000 </r>
       <r>   -38.5616     0.0000    50.0000 </r>
       <r>   -38.3261     0.0000    50.0000 </r>
       <r>   -38.0906     0.0000    50.0000 </r>
       <r>   -37.8551     0.0000    50.0000 </r>
       <r>   -37.6196     0.0000    50.0000 </r>
       <r>   -37.3841    99.7877    73.4992 </r>
       <r>   -37.1486   290.6809   180.4530 </r>
       <r>   -36.9131     0.0000   200.0000 </r>
       <r>   -36.6776     0.0000   200.0000 </r>
       <r>   -36.4421     0.0000   200.0000 </r>
       <r>   -36.2066     0.0000   200.0000 </r>
       <r>   -35.9712     0.0000   200.0000 </r>
       <r>   -35.7357     0.0000   200.0000 </r>
       <r>   -35.5002     0.0000   200.0000 </r>
       <r>   -35.2647     0.0000   200.0000 </r>
       <r>   -35.0292     0.0000   200.0000 </r>
       <r>   -34.7937     0.0000   200.0000 </r>
       <r>   -34.5582     0.0000   200.0000 </r>
       <r>   -34.3227     0.0000   200.0000 </r>
       <r>   -34.0872     0.0000   200.0000 </r>
       <r>   -33.8517     0.0000   200.0000 </r>
       <r>   -33.6162     0.0000   200.0000 </r>
       <r>   -33.3807     0.0000   200.0000 </r>
       <r>   -33.1452     0.0000   200.0000 </r>
       <r>   -32.9098     0.0000   200.0000 </r>
       <r>   -32.6743     0.0000   200.0000 </r>
       <r>   -32.4388     0.0000   200.0000 </r>
       <r>   -32.2033     0.0000   200.0000 </r>
       <r>   -31.9678     0.0000   200.0000 </r>
       <r>   -31.7323     0.0000   200.0000 </r>
       <r>   -31.4968     0.0000   200.0000 </r>
       <r>   -31.2613     0.0000   200.0000 </r>
       <r>   -31.0258     0.0000   200.0000 </r>
       <r>   -30.7903     0.0000   200.0000 </r>
       <r>   -30.5548     0.0000   200.0000 </r>
       <r>   -30.3193     0.0000   200.0000 </r>
       <r>   -30.0839     0.0000   200.0000 </r>
       <r>   -29.8484     0.0000   200.0000 </r>
       <r>   -29.6129     0.0000   200.0000 </r>
       <r>   -29.3774     0.0000   200.0000 </r>
       <r>   -29.1419     0.0000   200.0000 </r>
       <r>   -28.9064     0.0000   200.0000 </r>
       <r>   -28.6709     0.0000   200.0000 </r>
       <r>   -28.4354     0.0000   200.0000 </r>
       <r>   -28.1999     0.0000   200.0000 </r>
       <r>   -27.9644     0.0000   200.0000 </r>
       <r>   -27.7289     0.0000   200.0000 </r>
       <r>   -27.4934     0.0000   200.0000 </r>
       <r>   -27.2579     0.0000   200.0000 </r>
       <r>   -27.0225     0.0000   200.0000 </r>
       <r>   -26.7870     0.0000   200.0000 </r>
       <r>   -26.5515     0.0000   200.0000 </r>
       <r>   -26.3160     0.0000   200.0000 </r>
       <r>   -26.0805     0.0000   200.0000 </r>
       <r>   -25.8450     0.0000   200.0000 </r>
       <r>   -25.6095     0.0000   200.0000 </r>
       <r>   -25.3740     0.0000   200.0000 </r>
       <r>   -25.1385     0.0000   200.0000 </r>
       <r>   -24.9030     0.0000   200.0000 </r>
       <r>   -24.6675     0.0000   200.0000 </r>
       <r>   -24.4320     0.0000   200.0000 </r>
       <r>   -24.1965     0.0000   200.0000 </r>
       <r>   -23.9611     0.0000   200.0000 </r>
       <r>   -23.7256     0.0000   200.0000 </r>
       <r>   -23.4901     0.0000   200.0000 </r>
       <r>   -23.2546     0.0000   200.0000 </r>
       <r>   -23.0191     0.0000   200.0000 </r>
       <r>   -22.7836     0.0000   200.0000 </r>
       <r>   -22.5481     0.0000   200.0000 </r>
       <r>   -22.3126     0.0000   200.0000 </r>
       <r>   -22.0771     0.0000   200.0000 </r>
       <r>   -21.8416     0.0000   200.0000 </r>
       <r>   -21.6061     0.0000   200.0000 </r>
       <r>   -21.3706     0.0000   200.0000 </r>
       <r>   -21.1352     0.0000   200.0000 </r>
       <r>   -20.8997     0.0000   200.0000 </r>
       <r>   -20.6642     0.0000   200.0000 </r>
       <r>   -20.4287     0.0000   200.0000 </r>
       <r>   -20.1932     0.0000   200.0000 </r>
       <r>   -19.9577     0.0000   200.0000 </r>
       <r>   -19.7222     0.0000   200.0000 </r>
       <r>   -19.4867     0.0000   200.0000 </r>
       <r>   -19.2512     0.0000   200.0000 </r>
       <r>   -19.0157     0.0000   200.0000 </r>
       <r>   -18.7802     0.0000   200.0000 </r>
       <r>   -18.5447     0.0000   200.0000 </r>
       <r>   -18.3092     0.0000   200.0000 </r>
       <r>   -18.0738     0.0000   200.0000 </r>
       <r>   -17.8383     0.0000   200.0000 </r>
       <r>   -17.6028     0.0000   200.0000 </r>
       <r>   -17.3673     0.0000   200.0000 </r>
       <r>   -17.1318     0.0000   200.0000 </r>
       <r>   -16.8963     0.0000   200.0000 </r>
       <r>   -16.6608     0.0000   200.0000 </r>
       <r>   -16.4253     0.0000   200.0000 </r>
       <r>   -16.1898     0.0000   202.0000 </r>
       <r>   -15.9543     0.0000   202.0000 </r>
       <r>   -15.7188    50.9571   214.0000 </r>
       <r>   -15.4833     0.0000   214.0000 </r>
       <r>   -15.2479     0.0000   214.0000 </r>
       <r>   -15.0124     2.3564   214.5549 </r>
       <r>   -14.7769    44.9619   238.5882 </r>
       <r>   -14.5414     0.0000   252.0000 </r>
       <r>   -14.3059    88.7970   284.9110 </r>
       <r>   -14.0704     0.0000   300.0000 </r>
       <r>   -13.8349     0.0000   300.0000 </r>
       <r>   -13.5994     0.0000   300.0000 </r>
       <r>   -13.3639     0.0000   300.0000 </r>
       <r>   -13.1284     0.0000   300.0000 </r>
       <r>   -12.8929     0.0000   300.0000 </r>
       <r>   -12.6574     0.0000   300.0000 </r>
       <r>   -12.4219     0.0000   300.0000 </r>
       <r>   -12.1865     0.0000   300.0000 </r>
       <r>   -11.9510     0.0000   300.0000 </r>
       <r>   -11.7155     0.0000   300.0000 </r>
       <r>   -11.4800     0.0000   300.0000 </r>
       <r>   -11.2445     0.0000   300.0000 </r>
       <r>   -11.0090     0.0000   300.0000 </r>
       <r>   -10.7735     0.0000   300.0000 </r>
       <r>   -10.5380     0.0000   300.0000 </r>
       <r>   -10.3025     0.0000   300.0000 </r>
       <r>   -10.0670     0.0000   300.0000 </r>
       <r>    -9.8315     0.0000   300.0000 </r>
       <r>    -9.5960     0.0000   300.0000 </r>
       <r>    -9.3606     0.0000   300.0000 </r>
       <r>    -9.1251     0.0000   300.0000 </r>
       <r>    -8.8896     0.0000   300.0000 </r>
       <r>    -8.6541     0.0000   300.0000 </r>
       <r>    -8.4186     0.0000   300.0000 </r>
       <r>    -8.1831     0.0000   300.0000 </r>
       <r>    -7.9476     0.0000   300.0000 </r>
       <r>    -7.7121    50.9571   314.0000 </r>
       <r>    -7.4766     0.0000   314.0000 </r>
       <r>    -7.2411    93.4209   361.9999 </r>
       <r>    -7.0056     0.0000   362.0000 </r>
       <r>    -6.7701    33.6804   369.9315 </r>
       <r>    -6.5346     0.0000   374.0000 </r>
       <r>    -6.2992     0.0000   386.0000 </r>
       <r>    -6.0637     0.0000   410.0000 </r>
       <r>    -5.8282    40.5774   431.5557 </r>
       <r>    -5.5927     0.0000   434.0000 </r>
       <r>    -5.3572    50.9572   458.0000 </r>
       <r>    -5.1217     0.0000   482.0000 </r>
       <r>    -4.8862     1.3010   494.3064 </r>
       <r>    -4.6507     0.0000   498.0000 </r>
       <r>    -4.4152   101.9143   522.0000 </r>
       <r>    -4.1797     5.3816   535.2673 </r>
       <r>    -3.9442    33.9714   560.0000 </r>
       <r>    -3.7087    16.9857   564.0000 </r>
       <r>    -3.4733    48.1916   575.3487 </r>
       <r>    -3.2378     0.0000   600.0000 </r>
       <r>    -3.0023    50.9571   624.0000 </r>
       <r>    -2.7668     0.0000   624.0000 </r>
       <r>    -2.5313     2.5092   636.5909 </r>
       <r>    -2.2958     0.0000   648.0000 </r>
       <r>    -2.0603     0.0000   650.0000 </r>
       <r>    -1.8248     0.0000   650.0000 </r>
       <r>    -1.5893     0.0000   650.0000 </r>
       <r>    -1.3538     0.0000   650.0000 </r>
       <r>    -1.1183     0.0000   650.0000 </r>
       <r>    -0.8828     0.0000   650.0000 </r>
       <r>    -0.6473     0.0000   650.0000 </r>
       <r>    -0.4119     0.0000   650.0000 </r>
       <r>    -0.1764    50.9571   674.0000 </r>
       <r>     0.0591     0.0000   698.0000 </r>
       <r>     0.2946   150.0906   733.3451 </r>
       <r>     0.5301    16.9857   750.0000 </r>
       <r>     0.7656    16.9851   765.9998 </r>
       <r>     1.0011     0.0000   778.0000 </r>
       <r>     1.2366     0.0000   784.0000 </r>
       <r>     1.4721     0.0000   784.0000 </r>
       <r>     1.7076     0.0000   784.0000 </r>
       <r>     1.9431     0.0000   784.0000 </r>
       <r>     2.1786     0.0000   784.0000 </r>
       <r>     2.4140     0.0000   784.0000 </r>
       <r>     2.6495     0.0000   784.0000 </r>
       <r>     2.8850     0.0000   784.0000 </r>
       <r>     3.1205     0.0000   784.0000 </r>
       <r>     3.3560     0.0000   784.0000 </r>
       <r>     3.5915     0.0000   784.0000 </r>
       <r>     3.8270     0.0000   784.0000 </r>
       <r>     4.0625     0.0000   784.0000 </r>
       <r>     4.2980     0.0000   784.0000 </r>
      </set>
     </set>
    </array>
   </total>
  </dos>
 </calculation>
 <structure name="finalpos" >
  <crystal>
   <varray name="basis" >
    <v>      15.94995499       0.00000000       0.00000000 </v>
    <v>      -7.97497749      13.81306621       0.00000000 </v>
    <v>       0.00000000       0.00000000      21.14717293 </v>
   </varray>
   <i name="volume">   4659.09828272 </i>
   <varray name="rec_basis" >
    <v>       0.06269610       0.03619761       0.00000000 </v>
    <v>       0.00000000       0.07239522       0.00000000 </v>
    <v>       0.00000000       0.00000000       0.04728764 </v>
   </varray>
  </crystal>
  <varray name="positions" >
   <v>       0.00000000       0.00000000       0.50000000 </v>
   <v>       0.20000000       0.00000000       0.50000000 </v>
   <v>       0.40000000       0.00000000       0.50000000 </v>
   <v>       0.60000000       0.00000000       0.50000000 </v>
   <v>       0.80000000       0.00000000       0.50000000 </v>
   <v>       0.00000000       0.20000000       0.50000000 </v>
   <v>       0.20000000       0.20000000       0.50000000 </v>
   <v>       0.40000000       0.20000000       0.50000000 </v>
   <v>       0.60000000       0.20000000       0.50000000 </v>
   <v>       0.80000000       0.20000000       0.50000000 </v>
   <v>       0.00000000       0.40000000       0.50000000 </v>
   <v>       0.20000000       0.40000000       0.50000000 </v>
   <v>       0.40000000       0.40000000       0.50000000 </v>
   <v>       0.60000000       0.40000000       0.50000000 </v>
   <v>       0.80000000       0.40000000       0.50000000 </v>
   <v>       0.00000000       0.60000000       0.50000000 </v>
   <v>       0.20000000       0.60000000       0.50000000 </v>
   <v>       0.40000000       0.60000000       0.50000000 </v>
   <v>       0.60000000       0.60000000       0.50000000 </v>
   <v>       0.80000000       0.60000000       0.50000000 </v>
   <v>       0.00000000       0.80000000       0.50000000 </v>
   <v>       0.20000000       0.80000000       0.50000000 </v>
   <v>       0.40000000       0.80000000       0.50000000 </v>
   <v>       0.60000000       0.80000000       0.50000000 </v>
   <v>       0.80000000       0.80000000       0.50000000 </v>
   <v>       0.13371087       0.06666667       0.42659540 </v>
   <v>       0.33333333       0.06666667       0.42621787 </v>
   <v>       0.53333333       0.06666667       0.42621787 </v>
   <v>       0.73333333       0.06666667       0.42621787 </v>
   <v>       0.93333333       0.06666667       0.42621787 </v>
   <v>       0.13333333       0.26666667       0.42621787 </v>
   <v>       0.33333333       0.26666667       0.42621787 </v>
   <v>       0.53333333       0.26666667       0.42621787 </v>
   <v>       0.73333333       0.26666667       0.42621787 </v>
   <v>       0.93333333       0.26666667       0.42621787 </v>
   <v>       0.13333333       0.46666667       0.42621787 </v>
   <v>       0.33333333       0.46666667       0.42621787 </v>
   <v>       0.53333333       0.46666667       0.42621787 </v>
   <v>       0.73333333       0.46666667       0.42621787 </v>
   <v>       0.93333333       0.46666667       0.42621787 </v>
   <v>       0.13333333       0.66666667       0.42621787 </v>
   <v>       0.33333333       0.66666667       0.42621787 </v>
   <v>       0.53333333       0.66666667       0.42621787 </v>
   <v>       0.73333333       0.66666667       0.42621787 </v>
   <v>       0.93333333       0.66666667       0.42621787 </v>
   <v>       0.13333333       0.86666667       0.42621787 </v>
   <v>       0.33333333       0.86666667       0.42621787 </v>
   <v>       0.53333333       0.86666667       0.42621787 </v>
   <v>       0.73333333       0.86666667       0.42621787 </v>
   <v>       0.93333333       0.86666667       0.42621787 </v>
   <v>       0.13333333       0.06666667       0.57378213 </v>
   <v>       0.33333333       0.06666667       0.57378213 </v>
   <v>       0.53333333       0.06666667       0.57378213 </v>
   <v>       0.73333333       0.06666667       0.57378213 </v>
   <v>       0.93333333       0.06666667       0.57378213 </v>
   <v>       0.13333333       0.26666667       0.57378213 </v>
   <v>       0.33333333       0.26666667       0.57378213 </v>
   <v>       0.53333333       0.26666667       0.57378213 </v>
   <v>       0.73333333       0.26666667       0.57378213 </v>
   <v>       0.93333333       0.26666667       0.57378213 </v>
   <v>       0.13333333       0.46666667       0.57378213 </v>
   <v>       0.33333333       0.46666667       0.57378213 </v>
   <v>       0.53333333       0.46666667       0.57378213 </v>
   <v>       0.73333333       0.46666667       0.57378213 </v>
   <v>       0.93333333       0.46666667       0.57378213 </v>
   <v>       0.13333333       0.66666667       0.57378213 </v>
   <v>       0.33333333       0.66666667       0.57378213 </v>
   <v>       0.53333333       0.66666667       0.57378213 </v>
   <v>       0.73333333       0.66666667       0.57378213 </v>
   <v>       0.93333333       0.66666667       0.57378213 </v>
   <v>       0.13333333       0.86666667       0.57378213 </v>
   <v>       0.33333333       0.86666667       0.57378213 </v>
   <v>       0.53333333       0.86666667       0.57378213 </v>
   <v>       0.73333333       0.86666667       0.57378213 </v>
   <v>       0.93333333       0.86666667       0.57378213 </v>
  </varray>
 </structure>
</modeling>
