<?xml version="1.0" encoding="ISO-8859-1"?>
<modeling>
 <generator>
  <i name="program" type="string">vasp </i>
  <i name="version" type="string">5.4.4.18Apr17-6-g9f103f2a35  </i>
  <i name="subversion" type="string">(build Oct 18 2020 22:16:12) gamma-only         parallel </i>
  <i name="platform" type="string">UA-vaughan-2020a </i>
  <i name="date" type="string">2023 03 21 </i>
  <i name="time" type="string">17:22:09 </i>
 </generator>
 <incar>
  <i type="string" name="PREC">accurate</i>
  <i type="int" name="IALGO">    38</i>
  <i type="logical" name="ADDGRID"> T  </i>
  <i type="int" name="NELMIN">     5</i>
  <i type="int" name="IBRION">    -1</i>
  <i name="EDIFF">      0.00000001</i>
  <i name="EDIFFG">     -0.00000001</i>
  <i type="int" name="NSW">     0</i>
  <i type="int" name="ISIF">     2</i>
  <i name="ENCUT">    500.00000000</i>
  <i type="logical" name="LREAL"> F  </i>
  <i type="int" name="ISMEAR">     0</i>
  <i name="SIGMA">      0.01000000</i>
  <i type="logical" name="LWAVE"> F  </i>
  <i type="logical" name="LCHARG"> F  </i>
  <v type="int" name="KPOINT_BSE">    -1     0     0     0</v>
 </incar>
 <structure name="primitive_cell" >
  <crystal>
   <varray name="basis" >
    <v>      17.59966831       0.00000000       0.00000000 </v>
    <v>      -8.79983416      15.24175986       0.00000000 </v>
    <v>       0.00000000       0.00000000      19.92151445 </v>
   </varray>
   <i name="volume">   5343.94461817 </i>
   <varray name="rec_basis" >
    <v>       0.05681925       0.03280461       0.00000000 </v>
    <v>       0.00000000       0.06560922       0.00000000 </v>
    <v>       0.00000000       0.00000000       0.05019699 </v>
   </varray>
  </crystal>
  <varray name="positions" >
   <v>      -0.00094609       0.00005992       0.49962381 </v>
   <v>      -0.09559153      -0.04686260      -0.50000000 </v>
   <v>       0.04754270       0.09547788      -0.50000000 </v>
   <v>       0.04629157      -0.04845614      -0.50000000 </v>
   <v>      -0.14173506       0.00214292      -0.50000000 </v>
   <v>       0.14259355       0.14244783      -0.50000000 </v>
   <v>      -0.14440994      -0.14241310      -0.50000000 </v>
   <v>       0.00080792       0.14408264      -0.50000000 </v>
   <v>       0.14164706      -0.00128105      -0.50000000 </v>
   <v>      -0.00222825      -0.14386507      -0.50000000 </v>
   <v>      -0.09417874       0.09719274      -0.50000000 </v>
   <v>       0.18957833       0.09405657      -0.50000000 </v>
   <v>      -0.09804946      -0.19102931      -0.50000000 </v>
   <v>      -0.23644228      -0.04431313      -0.50000000 </v>
   <v>      -0.23937155      -0.18870526      -0.50000000 </v>
   <v>       0.19048138       0.23782962      -0.50000000 </v>
   <v>       0.04582562      -0.19120635      -0.50000000 </v>
   <v>       0.04854983       0.23934281      -0.50000000 </v>
   <v>       0.18948291      -0.04886963      -0.50000000 </v>
   <v>      -0.28359367      -0.13861590      -0.50000000 </v>
   <v>      -0.14194737       0.14467669      -0.50000000 </v>
   <v>       0.28470221       0.14112972      -0.50000000 </v>
   <v>      -0.14938794      -0.28617460      -0.50000000 </v>
   <v>       0.14372552       0.28645370      -0.50000000 </v>
   <v>       0.14160898      -0.14408712      -0.50000000 </v>
   <v>      -0.28469345       0.00214292      -0.50000000 </v>
   <v>      -0.00292766      -0.28629482      -0.50000000 </v>
   <v>       0.28540977       0.28469374      -0.50000000 </v>
   <v>       0.00095476       0.28713011      -0.50000000 </v>
   <v>       0.28492260      -0.00158337      -0.50000000 </v>
   <v>      -0.29741032      -0.28373063      -0.50000000 </v>
   <v>      -0.09946280      -0.33311206      -0.50000000 </v>
   <v>       0.33234878       0.23634667      -0.50000000 </v>
   <v>      -0.23719996       0.09719274      -0.50000000 </v>
   <v>      -0.09437203       0.23982737      -0.50000000 </v>
   <v>       0.33254182       0.09365506      -0.50000000 </v>
   <v>      -0.24762082      -0.33289240      -0.50000000 </v>
   <v>      -0.37790513      -0.18870526      -0.50000000 </v>
   <v>       0.19188940       0.38184213      -0.50000000 </v>
   <v>       0.19009580      -0.19123697      -0.50000000 </v>
   <v>      -0.37984249      -0.04686260      -0.50000000 </v>
   <v>       0.04642473      -0.33314772      -0.50000000 </v>
   <v>       0.33352206       0.38013969      -0.50000000 </v>
   <v>       0.04871288       0.38232824      -0.50000000 </v>
   <v>       0.33307603      -0.04886963      -0.50000000 </v>
   <v>      -0.41489174      -0.28373063      -0.50000000 </v>
   <v>      -0.42657459      -0.14241310      -0.50000000 </v>
   <v>       0.42724431       0.28306005      -0.50000000 </v>
   <v>      -0.14538305      -0.42818375      -0.50000000 </v>
   <v>      -0.28529671       0.14408264      -0.50000000 </v>
   <v>      -0.28954788      -0.42784436      -0.50000000 </v>
   <v>      -0.14239608       0.28713011      -0.50000000 </v>
   <v>       0.14422690       0.42957551      -0.50000000 </v>
   <v>       0.42785608       0.14112972      -0.50000000 </v>
   <v>       0.28730213       0.42918005      -0.50000000 </v>
   <v>       0.14255519      -0.28631818      -0.50000000 </v>
   <v>       0.28573247      -0.14408712      -0.50000000 </v>
   <v>      -0.24098231      -0.47544567      -0.50000000 </v>
   <v>      -0.23777845       0.23934281      -0.50000000 </v>
   <v>       0.47542646       0.23634667      -0.50000000 </v>
   <v>      -0.42794161       0.00005992      -0.50000000 </v>
   <v>       0.42797654       0.42569726      -0.50000000 </v>
   <v>      -0.00071745      -0.42818538      -0.50000000 </v>
   <v>       0.00054479       0.42966101      -0.50000000 </v>
   <v>       0.42850047      -0.00128105      -0.50000000 </v>
   <v>      -0.43169127      -0.43481112      -0.50000000 </v>
   <v>       0.47472270       0.37801683      -0.50000000 </v>
   <v>      -0.38063624       0.09547788      -0.50000000 </v>
   <v>      -0.09644208      -0.47523136      -0.50000000 </v>
   <v>      -0.09495607       0.38232824      -0.50000000 </v>
   <v>       0.47590681       0.09405657      -0.50000000 </v>
   <v>      -0.38544126      -0.47853279      -0.50000000 </v>
   <v>       0.48615700      -0.33289240      -0.50000000 </v>
   <v>       0.47844872      -0.19102931      -0.50000000 </v>
   <v>       0.19263929      -0.47523136      -0.50000000 </v>
   <v>       0.33696521      -0.47544567      -0.50000000 </v>
   <v>       0.19185612      -0.33314772      -0.50000000 </v>
   <v>       0.33439660      -0.19120635      -0.50000000 </v>
   <v>       0.43464191      -0.28617460      -0.50000000 </v>
   <v>      -0.28669350       0.42918005      -0.50000000 </v>
   <v>      -0.28584326       0.28645370      -0.50000000 </v>
   <v>      -0.42928746       0.28469374      -0.50000000 </v>
   <v>       0.28862787      -0.42818375      -0.50000000 </v>
   <v>       0.28806142      -0.28629482      -0.50000000 </v>
   <v>       0.47668087      -0.04845614      -0.50000000 </v>
   <v>       0.47833704      -0.47853279      -0.50000000 </v>
   <v>       0.04810654      -0.47521548      -0.50000000 </v>
   <v>       0.43313209      -0.42784436      -0.50000000 </v>
   <v>       0.42979175      -0.14386507      -0.50000000 </v>
   <v>      -0.43085070       0.42569726      -0.50000000 </v>
   <v>      -0.42871714       0.14244783      -0.50000000 </v>
   <v>      -0.14322281       0.42957551      -0.50000000 </v>
   <v>       0.14396064      -0.42818538      -0.50000000 </v>
   <v>      -0.38122319       0.23782962      -0.50000000 </v>
   <v>      -0.23861870       0.38184213      -0.50000000 </v>
   <v>      -0.38195380       0.38013969      -0.50000000 </v>
   <v>       0.33777931      -0.33311206      -0.50000000 </v>
  </varray>
 </structure>
 <varray name="primitive_index" >
  <v type="int" >        1 </v>
  <v type="int" >       96 </v>
  <v type="int" >       49 </v>
  <v type="int" >       90 </v>
  <v type="int" >        7 </v>
  <v type="int" >        9 </v>
  <v type="int" >       48 </v>
  <v type="int" >        8 </v>
  <v type="int" >        2 </v>
  <v type="int" >       42 </v>
  <v type="int" >       55 </v>
  <v type="int" >       50 </v>
  <v type="int" >       89 </v>
  <v type="int" >       95 </v>
  <v type="int" >       88 </v>
  <v type="int" >       57 </v>
  <v type="int" >       83 </v>
  <v type="int" >       56 </v>
  <v type="int" >       91 </v>
  <v type="int" >       47 </v>
  <v type="int" >       14 </v>
  <v type="int" >       10 </v>
  <v type="int" >       41 </v>
  <v type="int" >       16 </v>
  <v type="int" >       43 </v>
  <v type="int" >        6 </v>
  <v type="int" >       35 </v>
  <v type="int" >       17 </v>
  <v type="int" >       15 </v>
  <v type="int" >        3 </v>
  <v type="int" >       40 </v>
  <v type="int" >       82 </v>
  <v type="int" >       58 </v>
  <v type="int" >       54 </v>
  <v type="int" >       62 </v>
  <v type="int" >       51 </v>
  <v type="int" >       81 </v>
  <v type="int" >       87 </v>
  <v type="int" >       64 </v>
  <v type="int" >       84 </v>
  <v type="int" >       94 </v>
  <v type="int" >       77 </v>
  <v type="int" >       65 </v>
  <v type="int" >       63 </v>
  <v type="int" >       92 </v>
  <v type="int" >       39 </v>
  <v type="int" >       46 </v>
  <v type="int" >       18 </v>
  <v type="int" >       34 </v>
  <v type="int" >       13 </v>
  <v type="int" >       33 </v>
  <v type="int" >       21 </v>
  <v type="int" >       23 </v>
  <v type="int" >       11 </v>
  <v type="int" >       24 </v>
  <v type="int" >       36 </v>
  <v type="int" >       44 </v>
  <v type="int" >       75 </v>
  <v type="int" >       61 </v>
  <v type="int" >       59 </v>
  <v type="int" >        5 </v>
  <v type="int" >       25 </v>
  <v type="int" >       29 </v>
  <v type="int" >       22 </v>
  <v type="int" >        4 </v>
  <v type="int" >       97 </v>
  <v type="int" >       66 </v>
  <v type="int" >       53 </v>
  <v type="int" >       76 </v>
  <v type="int" >       69 </v>
  <v type="int" >       52 </v>
  <v type="int" >       74 </v>
  <v type="int" >       80 </v>
  <v type="int" >       86 </v>
  <v type="int" >       71 </v>
  <v type="int" >       72 </v>
  <v type="int" >       78 </v>
  <v type="int" >       85 </v>
  <v type="int" >       38 </v>
  <v type="int" >       27 </v>
  <v type="int" >       20 </v>
  <v type="int" >       19 </v>
  <v type="int" >       31 </v>
  <v type="int" >       37 </v>
  <v type="int" >       93 </v>
  <v type="int" >       73 </v>
  <v type="int" >       70 </v>
  <v type="int" >       32 </v>
  <v type="int" >       45 </v>
  <v type="int" >       26 </v>
  <v type="int" >       12 </v>
  <v type="int" >       28 </v>
  <v type="int" >       30 </v>
  <v type="int" >       60 </v>
  <v type="int" >       68 </v>
  <v type="int" >       67 </v>
  <v type="int" >       79 </v>
 </varray>
 <kpoints>
  <generation param="Gamma">
   <v type="int" name="divisions">       1        1        1 </v>
   <v name="usershift">      0.00000000       0.00000000       0.00000000 </v>
   <v name="genvec1">      1.00000000      -0.00000000       0.00000000 </v>
   <v name="genvec2">      0.00000000       1.00000000       0.00000000 </v>
   <v name="genvec3">      0.00000000       0.00000000       1.00000000 </v>
   <v name="shift">      0.00000000       0.00000000       0.00000000 </v>
  </generation>
  <varray name="kpointlist" >
   <v>       0.00000000       0.00000000       0.00000000 </v>
  </varray>
  <varray name="weights" >
   <v>       1.00000000 </v>
  </varray>
 </kpoints>
 <parameters>
  <separator name="general" >
   <i type="string" name="SYSTEM">unknown system</i>
   <i type="logical" name="LCOMPAT"> F  </i>
  </separator>
  <separator name="electronic" >
   <i type="string" name="PREC">accura</i>
   <i name="ENMAX">    500.00000000</i>
   <i name="ENAUG">    644.87300000</i>
   <i name="EDIFF">      0.00000001</i>
   <i type="int" name="IALGO">    38</i>
   <i type="int" name="IWAVPR">    10</i>
   <i type="int" name="NBANDS">   244</i>
   <i name="NELECT">    388.00000000</i>
   <i type="int" name="TURBO">     0</i>
   <i type="int" name="IRESTART">     0</i>
   <i type="int" name="NREBOOT">     0</i>
   <i type="int" name="NMIN">     0</i>
   <i name="EREF">      0.00000000</i>
   <separator name="electronic smearing" >
    <i type="int" name="ISMEAR">     0</i>
    <i name="SIGMA">      0.01000000</i>
    <i name="KSPACING">      0.50000000</i>
    <i type="logical" name="KGAMMA"> T  </i>
   </separator>
   <separator name="electronic projectors" >
    <i type="logical" name="LREAL"> F  </i>
    <v name="ROPT">      0.00000000      0.00000000      0.00000000</v>
    <i type="int" name="LMAXPAW">  -100</i>
    <i type="int" name="LMAXMIX">     2</i>
    <i type="logical" name="NLSPLINE"> F  </i>
   </separator>
   <separator name="electronic startup" >
    <i type="int" name="ISTART">     0</i>
    <i type="int" name="ICHARG">     2</i>
    <i type="int" name="INIWAV">     1</i>
   </separator>
   <separator name="electronic spin" >
    <i type="int" name="ISPIN">     1</i>
    <i type="logical" name="LNONCOLLINEAR"> F  </i>
    <v name="MAGMOM">      1.00000000      1.00000000      1.00000000      1.00000000      1.00000000      1.00000000      1.00000000      1.00000000      1.00000000      1.00000000      1.00000000      1.00000000      1.00000000      1.00000000      1.00000000      1.00000000      1.00000000      1.00000000      1.00000000      1.00000000
      1.00000000      1.00000000      1.00000000      1.00000000      1.00000000      1.00000000      1.00000000      1.00000000      1.00000000      1.00000000      1.00000000      1.00000000      1.00000000      1.00000000      1.00000000      1.00000000      1.00000000      1.00000000      1.00000000      1.00000000
      1.00000000      1.00000000      1.00000000      1.00000000      1.00000000      1.00000000      1.00000000      1.00000000      1.00000000      1.00000000      1.00000000      1.00000000      1.00000000      1.00000000      1.00000000      1.00000000      1.00000000      1.00000000      1.00000000      1.00000000
      1.00000000      1.00000000      1.00000000      1.00000000      1.00000000      1.00000000      1.00000000      1.00000000      1.00000000      1.00000000      1.00000000      1.00000000      1.00000000      1.00000000      1.00000000      1.00000000      1.00000000      1.00000000      1.00000000      1.00000000
      1.00000000      1.00000000      1.00000000      1.00000000      1.00000000      1.00000000      1.00000000      1.00000000      1.00000000      1.00000000      1.00000000      1.00000000      1.00000000      1.00000000      1.00000000      1.00000000      1.00000000</v>
    <i name="NUPDOWN">     -1.00000000</i>
    <i type="logical" name="LSORBIT"> F  </i>
    <v name="SAXIS">      0.00000000      0.00000000      1.00000000</v>
    <i type="logical" name="LSPIRAL"> F  </i>
    <v name="QSPIRAL">      0.00000000      0.00000000      0.00000000</v>
    <i type="logical" name="LZEROZ"> F  </i>
   </separator>
   <separator name="electronic exchange-correlation" >
    <i type="logical" name="LASPH"> F  </i>
    <i type="logical" name="LMETAGGA"> F  </i>
   </separator>
   <separator name="electronic convergence" >
    <i type="int" name="NELM">    60</i>
    <i type="int" name="NELMDL">    -5</i>
    <i type="int" name="NELMIN">     5</i>
    <i name="ENINI">    500.00000000</i>
    <separator name="electronic convergence detail" >
     <i type="logical" name="LDIAG"> T  </i>
     <i type="logical" name="LSUBROT"> F  </i>
     <i name="WEIMIN">      0.00000000</i>
     <i name="EBREAK">      0.00000000</i>
     <i name="DEPER">      0.30000000</i>
     <i type="int" name="NRMM">     4</i>
     <i name="TIME">      0.40000000</i>
    </separator>
   </separator>
   <separator name="electronic mixer" >
    <i name="AMIX">      0.40000000</i>
    <i name="BMIX">      1.00000000</i>
    <i name="AMIN">      0.10000000</i>
    <i name="AMIX_MAG">      1.60000000</i>
    <i name="BMIX_MAG">      1.00000000</i>
    <separator name="electronic mixer details" >
     <i type="int" name="IMIX">     4</i>
     <i type="logical" name="MIXFIRST"> F  </i>
     <i type="int" name="MAXMIX">   -45</i>
     <i name="WC">    100.00000000</i>
     <i type="int" name="INIMIX">     1</i>
     <i type="int" name="MIXPRE">     1</i>
     <i type="int" name="MREMOVE">     5</i>
    </separator>
   </separator>
   <separator name="electronic dipolcorrection" >
    <i type="logical" name="LDIPOL"> F  </i>
    <i type="logical" name="LMONO"> F  </i>
    <i type="int" name="IDIPOL">     0</i>
    <i name="EPSILON">      1.00000000</i>
    <v name="DIPOL">   -100.00000000   -100.00000000   -100.00000000</v>
    <i name="EFIELD">      0.00000000</i>
   </separator>
  </separator>
  <separator name="grids" >
   <i type="int" name="NGX">   128</i>
   <i type="int" name="NGY">   128</i>
   <i type="int" name="NGZ">   150</i>
   <i type="int" name="NGXF">   256</i>
   <i type="int" name="NGYF">   256</i>
   <i type="int" name="NGZF">   300</i>
   <i type="logical" name="ADDGRID"> T  </i>
  </separator>
  <separator name="ionic" >
   <i type="int" name="NSW">     0</i>
   <i type="int" name="IBRION">    -1</i>
   <i type="int" name="MDALGO">     0</i>
   <i type="int" name="ISIF">     2</i>
   <i name="PSTRESS">      0.00000000</i>
   <i name="EDIFFG">     -0.00000001</i>
   <i type="int" name="NFREE">     0</i>
   <i name="POTIM">      0.50000000</i>
   <i name="SMASS">     -3.00000000</i>
   <i name="SCALEE">      1.00000000</i>
  </separator>
  <separator name="ionic md" >
   <i name="TEBEG">      0.00010000</i>
   <i name="TEEND">      0.00010000</i>
   <i type="int" name="NBLOCK">     1</i>
   <i type="int" name="KBLOCK">     1</i>
   <i type="int" name="NPACO">   256</i>
   <i name="APACO">     16.00000000</i>
  </separator>
  <separator name="symmetry" >
   <i type="int" name="ISYM">     2</i>
   <i name="SYMPREC">      0.00001000</i>
  </separator>
  <separator name="dos" >
   <i type="int" name="LORBIT">     0</i>
   <v name="RWIGS">     -1.00000000     -1.00000000     -1.00000000</v>
   <i type="int" name="NEDOS">   301</i>
   <i name="EMIN">     10.00000000</i>
   <i name="EMAX">    -10.00000000</i>
   <i name="EFERMI">      0.00000000</i>
  </separator>
  <separator name="writing" >
   <i type="int" name="NWRITE">     2</i>
   <i type="logical" name="LWAVE"> F  </i>
   <i type="logical" name="LDOWNSAMPLE"> F  </i>
   <i type="logical" name="LCHARG"> F  </i>
   <i type="logical" name="LPARD"> F  </i>
   <i type="logical" name="LVTOT"> F  </i>
   <i type="logical" name="LVHAR"> F  </i>
   <i type="logical" name="LELF"> F  </i>
   <i type="logical" name="LOPTICS"> F  </i>
   <v name="STM">      0.00000000      0.00000000      0.00000000      0.00000000      0.00000000      0.00000000      0.00000000</v>
  </separator>
  <separator name="performance" >
   <i type="int" name="NPAR">     4</i>
   <i type="int" name="NSIM">     4</i>
   <i type="int" name="NBLK">    -1</i>
   <i type="logical" name="LPLANE"> T  </i>
   <i type="logical" name="LSCALAPACK"> T  </i>
   <i type="logical" name="LSCAAWARE"> F  </i>
   <i type="logical" name="LSCALU"> F  </i>
   <i type="logical" name="LASYNC"> F  </i>
   <i type="logical" name="LORBITALREAL"> F  </i>
  </separator>
  <separator name="miscellaneous" >
   <i type="int" name="IDIOT">     3</i>
   <i type="int" name="ISPECIAL">     0</i>
   <i type="logical" name="LMUSIC"> F  </i>
   <v name="POMASS">     10.81100000     14.00100000     12.01100000</v>
   <v name="DARWINR">      0.00000000      0.00000000      0.00000000</v>
   <v name="DARWINV">      1.00000000      1.00000000      1.00000000</v>
   <i type="logical" name="LCORR"> T  </i>
  </separator>
  <i type="logical" name="GGA_COMPAT"> T  </i>
  <i type="logical" name="LBERRY"> F  </i>
  <i type="int" name="ICORELEVEL">     0</i>
  <i type="logical" name="LDAU"> F  </i>
  <i type="int" name="I_CONSTRAINED_M">     0</i>
  <separator name="electronic exchange-correlation" >
   <i type="string" name="GGA">--</i>
   <i type="int" name="VOSKOWN">     0</i>
   <i type="logical" name="LHFCALC"> F  </i>
   <i type="string" name="PRECFOCK"></i>
   <i type="logical" name="LSYMGRAD"> F  </i>
   <i type="logical" name="LHFONE"> F  </i>
   <i type="logical" name="LRHFCALC"> F  </i>
   <i type="logical" name="LTHOMAS"> F  </i>
   <i type="logical" name="LMODELHF"> F  </i>
   <i name="ENCUT4O">     -1.00000000</i>
   <i type="int" name="EXXOEP">     0</i>
   <i type="int" name="FOURORBIT">     0</i>
   <i name="AEXX">      0.00000000</i>
   <i name="HFALPHA">      0.00000000</i>
   <i name="MCALPHA">      0.00000000</i>
   <i name="ALDAX">      1.00000000</i>
   <i name="AGGAX">      1.00000000</i>
   <i name="ALDAC">      1.00000000</i>
   <i name="AGGAC">      1.00000000</i>
   <i type="int" name="NKREDX">     1</i>
   <i type="int" name="NKREDY">     1</i>
   <i type="int" name="NKREDZ">     1</i>
   <i type="logical" name="SHIFTRED"> F  </i>
   <i type="logical" name="ODDONLY"> F  </i>
   <i type="logical" name="EVENONLY"> F  </i>
   <i type="int" name="LMAXFOCK">     0</i>
   <i type="int" name="NMAXFOCKAE">     0</i>
   <i type="logical" name="LFOCKAEDFT"> F  </i>
   <i name="HFSCREEN">      0.00000000</i>
   <i name="HFSCREENC">      0.00000000</i>
   <i type="int" name="NBANDSGWLOW">     0</i>
  </separator>
  <separator name="vdW DFT" >
   <i type="logical" name="LUSE_VDW"> F  </i>
   <i name="Zab_VDW">     -0.84910000</i>
   <i name="PARAM1">      0.12340000</i>
   <i name="PARAM2">      1.00000000</i>
   <i name="PARAM3">      0.00000000</i>
  </separator>
  <separator name="model GW" >
   <i type="int" name="MODEL_GW">     0</i>
   <i name="MODEL_EPS0">     33.05532754</i>
   <i name="MODEL_ALPHA">      1.00000000</i>
  </separator>
  <separator name="linear response parameters" >
   <i type="logical" name="LEPSILON"> F  </i>
   <i type="logical" name="LRPA"> F  </i>
   <i type="logical" name="LNABLA"> F  </i>
   <i type="logical" name="LVEL"> F  </i>
   <i type="int" name="KINTER">     0</i>
   <i name="CSHIFT">      0.10000000</i>
   <i name="OMEGAMAX">     -1.00000000</i>
   <i name="DEG_THRESHOLD">      0.00200000</i>
   <i name="RTIME">     -0.10000000</i>
   <i name="WPLASMAI">      0.00000000</i>
   <v name="DFIELD">      0.00000000      0.00000000      0.00000000</v>
   <v name="WPLASMA">      0.00000000      0.00000000      0.00000000      0.00000000      0.00000000      0.00000000      0.00000000      0.00000000      0.00000000</v>
  </separator>
  <separator name="orbital magnetization" >
   <i type="logical" name="NUCIND"> F  </i>
   <v name="MAGPOS">      0.00000000      0.00000000      0.00000000</v>
   <i type="logical" name="LNICSALL"> T  </i>
   <i type="logical" name="ORBITALMAG"> F  </i>
   <i type="logical" name="LMAGBLOCH"> F  </i>
   <i type="logical" name="LCHIMAG"> F  </i>
   <i type="logical" name="LGAUGE"> T  </i>
   <i type="int" name="MAGATOM">     0</i>
   <v name="MAGDIPOL">      0.00000000      0.00000000      0.00000000</v>
   <v name="AVECCONST">      0.00000000      0.00000000      0.00000000</v>
  </separator>
  <separator name="response functions" >
   <i type="logical" name="LADDER"> F  </i>
   <i type="logical" name="LRPAFORCE"> F  </i>
   <i type="logical" name="LFXC"> F  </i>
   <i type="logical" name="LHARTREE"> T  </i>
   <i type="int" name="IBSE">     0</i>
   <v type="int" name="KPOINT">    -1     0     0     0</v>
   <i type="logical" name="LTCTE"> F  </i>
   <i type="logical" name="LTETE"> F  </i>
   <i type="logical" name="LTRIPLET"> F  </i>
   <i type="logical" name="LFXCEPS"> F  </i>
   <i type="logical" name="LFXHEG"> F  </i>
   <i type="int" name="NATURALO">     2</i>
   <i type="logical" name="L2ORDER"> F  </i>
   <i type="logical" name="LMP2LT"> F  </i>
   <i type="logical" name="LUSEW"> F  </i>
   <i name="ENCUTGW">     -2.00000000</i>
   <i name="ENCUTGWSOFT">     -2.00000000</i>
   <i name="ENCUTLF">     -1.00000000</i>
   <i type="int" name="LMAXMP2">    -1</i>
   <i name="SCISSOR">      0.00000000</i>
   <i type="int" name="NOMEGA">     0</i>
   <i type="int" name="NOMEGAR">     0</i>
   <i type="int" name="NBANDSGW">    -1</i>
   <i type="int" name="NBANDSO">    -1</i>
   <i type="int" name="NBANDSV">    -1</i>
   <i type="int" name="NELM">     1</i>
   <i type="int" name="NELMHF">     1</i>
   <i type="int" name="DIM">     3</i>
   <i type="int" name="ANTIRES">     0</i>
   <i name="OMEGAMAX">    -30.00000000</i>
   <i name="OMEGAMIN">    -30.00000000</i>
   <i name="OMEGATL">   -200.00000000</i>
   <i type="int" name="OMEGAGRID">   140</i>
   <i name="CSHIFT">     -0.10000000</i>
   <i type="logical" name="SELFENERGY"> F  </i>
   <i type="logical" name="LSPECTRAL"> F  </i>
   <i type="logical" name="LSPECTRALGW"> F  </i>
   <i type="logical" name="LSINGLES"> F  </i>
   <i type="logical" name="LFERMIGW"> F  </i>
   <i type="logical" name="ODDONLYGW"> F  </i>
   <i type="logical" name="EVENONLYGW"> F  </i>
   <i type="int" name="NKREDLFX">     1</i>
   <i type="int" name="NKREDLFY">     1</i>
   <i type="int" name="NKREDLFZ">     1</i>
   <i type="int" name="MAXMEM">  2800</i>
   <i type="int" name="TELESCOPE">     0</i>
   <i type="int" name="TAUPAR">     1</i>
   <i type="int" name="OMEGAPAR">    -1</i>
   <i name="LAMBDA">      1.00000000</i>
  </separator>
  <separator name="External order field" >
   <i name="OFIELD_KAPPA">      0.00000000</i>
   <v name="OFIELD_K">      0.00000000      0.00000000      0.00000000</v>
   <i name="OFIELD_Q6_NEAR">      0.00000000</i>
   <i name="OFIELD_Q6_FAR">      0.00000000</i>
   <i name="OFIELD_A">      0.00000000</i>
  </separator>
 </parameters>
 <atominfo>
  <atoms>      97 </atoms>
  <types>       3 </types>
  <array name="atoms" >
   <dimension dim="1">ion</dimension>
   <field type="string">element</field>
   <field type="int">atomtype</field>
   <set>
    <rc><c>B </c><c>   1</c></rc>
    <rc><c>B </c><c>   1</c></rc>
    <rc><c>B </c><c>   1</c></rc>
    <rc><c>B </c><c>   1</c></rc>
    <rc><c>B </c><c>   1</c></rc>
    <rc><c>B </c><c>   1</c></rc>
    <rc><c>B </c><c>   1</c></rc>
    <rc><c>B </c><c>   1</c></rc>
    <rc><c>B </c><c>   1</c></rc>
    <rc><c>B </c><c>   1</c></rc>
    <rc><c>B </c><c>   1</c></rc>
    <rc><c>B </c><c>   1</c></rc>
    <rc><c>B </c><c>   1</c></rc>
    <rc><c>B </c><c>   1</c></rc>
    <rc><c>B </c><c>   1</c></rc>
    <rc><c>B </c><c>   1</c></rc>
    <rc><c>B </c><c>   1</c></rc>
    <rc><c>B </c><c>   1</c></rc>
    <rc><c>B </c><c>   1</c></rc>
    <rc><c>B </c><c>   1</c></rc>
    <rc><c>B </c><c>   1</c></rc>
    <rc><c>B </c><c>   1</c></rc>
    <rc><c>B </c><c>   1</c></rc>
    <rc><c>B </c><c>   1</c></rc>
    <rc><c>B </c><c>   1</c></rc>
    <rc><c>B </c><c>   1</c></rc>
    <rc><c>B </c><c>   1</c></rc>
    <rc><c>B </c><c>   1</c></rc>
    <rc><c>B </c><c>   1</c></rc>
    <rc><c>B </c><c>   1</c></rc>
    <rc><c>B </c><c>   1</c></rc>
    <rc><c>B </c><c>   1</c></rc>
    <rc><c>B </c><c>   1</c></rc>
    <rc><c>B </c><c>   1</c></rc>
    <rc><c>B </c><c>   1</c></rc>
    <rc><c>B </c><c>   1</c></rc>
    <rc><c>B </c><c>   1</c></rc>
    <rc><c>B </c><c>   1</c></rc>
    <rc><c>B </c><c>   1</c></rc>
    <rc><c>B </c><c>   1</c></rc>
    <rc><c>B </c><c>   1</c></rc>
    <rc><c>B </c><c>   1</c></rc>
    <rc><c>B </c><c>   1</c></rc>
    <rc><c>B </c><c>   1</c></rc>
    <rc><c>B </c><c>   1</c></rc>
    <rc><c>B </c><c>   1</c></rc>
    <rc><c>B </c><c>   1</c></rc>
    <rc><c>B </c><c>   1</c></rc>
    <rc><c>N </c><c>   2</c></rc>
    <rc><c>N </c><c>   2</c></rc>
    <rc><c>N </c><c>   2</c></rc>
    <rc><c>N </c><c>   2</c></rc>
    <rc><c>N </c><c>   2</c></rc>
    <rc><c>N </c><c>   2</c></rc>
    <rc><c>N </c><c>   2</c></rc>
    <rc><c>N </c><c>   2</c></rc>
    <rc><c>N </c><c>   2</c></rc>
    <rc><c>N </c><c>   2</c></rc>
    <rc><c>N </c><c>   2</c></rc>
    <rc><c>N </c><c>   2</c></rc>
    <rc><c>N </c><c>   2</c></rc>
    <rc><c>N </c><c>   2</c></rc>
    <rc><c>N </c><c>   2</c></rc>
    <rc><c>N </c><c>   2</c></rc>
    <rc><c>N </c><c>   2</c></rc>
    <rc><c>N </c><c>   2</c></rc>
    <rc><c>N </c><c>   2</c></rc>
    <rc><c>N </c><c>   2</c></rc>
    <rc><c>N </c><c>   2</c></rc>
    <rc><c>N </c><c>   2</c></rc>
    <rc><c>N </c><c>   2</c></rc>
    <rc><c>N </c><c>   2</c></rc>
    <rc><c>N </c><c>   2</c></rc>
    <rc><c>N </c><c>   2</c></rc>
    <rc><c>N </c><c>   2</c></rc>
    <rc><c>N </c><c>   2</c></rc>
    <rc><c>N </c><c>   2</c></rc>
    <rc><c>N </c><c>   2</c></rc>
    <rc><c>N </c><c>   2</c></rc>
    <rc><c>N </c><c>   2</c></rc>
    <rc><c>N </c><c>   2</c></rc>
    <rc><c>N </c><c>   2</c></rc>
    <rc><c>N </c><c>   2</c></rc>
    <rc><c>N </c><c>   2</c></rc>
    <rc><c>N </c><c>   2</c></rc>
    <rc><c>N </c><c>   2</c></rc>
    <rc><c>N </c><c>   2</c></rc>
    <rc><c>N </c><c>   2</c></rc>
    <rc><c>N </c><c>   2</c></rc>
    <rc><c>N </c><c>   2</c></rc>
    <rc><c>N </c><c>   2</c></rc>
    <rc><c>N </c><c>   2</c></rc>
    <rc><c>N </c><c>   2</c></rc>
    <rc><c>N </c><c>   2</c></rc>
    <rc><c>N </c><c>   2</c></rc>
    <rc><c>N </c><c>   2</c></rc>
    <rc><c>C </c><c>   3</c></rc>
   </set>
  </array>
  <array name="atomtypes" >
   <dimension dim="1">type</dimension>
   <field type="int">atomspertype</field>
   <field type="string">element</field>
   <field>mass</field>
   <field>valence</field>
   <field type="string">pseudopotential</field>
   <set>
    <rc><c>  48</c><c>B </c><c>     10.81100000</c><c>      3.00000000</c><c>  PAW_PBE B 06Sep2000                   </c></rc>
    <rc><c>  48</c><c>N </c><c>     14.00100000</c><c>      5.00000000</c><c>  PAW_PBE N 08Apr2002                   </c></rc>
    <rc><c>   1</c><c>C </c><c>     12.01100000</c><c>      4.00000000</c><c>  PAW_PBE C 08Apr2002                   </c></rc>
   </set>
  </array>
 </atominfo>
 <structure name="initialpos" >
  <crystal>
   <varray name="basis" >
    <v>      17.59966831       0.00000000       0.00000000 </v>
    <v>      -8.79983416      15.24175986       0.00000000 </v>
    <v>       0.00000000       0.00000000      19.92151445 </v>
   </varray>
   <i name="volume">   5343.94461817 </i>
   <varray name="rec_basis" >
    <v>       0.05681925       0.03280461       0.00000000 </v>
    <v>       0.00000000       0.06560922       0.00000000 </v>
    <v>       0.00000000       0.00000000       0.05019699 </v>
   </varray>
  </crystal>
  <varray name="positions" >
   <v>       0.99905391       0.00005992       0.49962381 </v>
   <v>       0.14164706       0.99871895       0.50000000 </v>
   <v>       0.28492260       0.99841663       0.50000000 </v>
   <v>       0.42850047       0.99871895       0.50000000 </v>
   <v>       0.57205839       0.00005992       0.50000000 </v>
   <v>       0.71530655       0.00214292       0.50000000 </v>
   <v>       0.85826494       0.00214292       0.50000000 </v>
   <v>       0.00080792       0.14408264       0.50000000 </v>
   <v>       0.14259355       0.14244783       0.50000000 </v>
   <v>       0.28470221       0.14112972       0.50000000 </v>
   <v>       0.42785608       0.14112972       0.50000000 </v>
   <v>       0.57128286       0.14244783       0.50000000 </v>
   <v>       0.71470329       0.14408264       0.50000000 </v>
   <v>       0.85805263       0.14467669       0.50000000 </v>
   <v>       0.00095476       0.28713011       0.50000000 </v>
   <v>       0.14372552       0.28645370       0.50000000 </v>
   <v>       0.28540977       0.28469374       0.50000000 </v>
   <v>       0.42724431       0.28306005       0.50000000 </v>
   <v>       0.57071254       0.28469374       0.50000000 </v>
   <v>       0.71415674       0.28645370       0.50000000 </v>
   <v>       0.85760392       0.28713011       0.50000000 </v>
   <v>       0.00054479       0.42966101       0.50000000 </v>
   <v>       0.14422690       0.42957551       0.50000000 </v>
   <v>       0.28730213       0.42918005       0.50000000 </v>
   <v>       0.42797654       0.42569726       0.50000000 </v>
   <v>       0.56914930       0.42569726       0.50000000 </v>
   <v>       0.71330650       0.42918005       0.50000000 </v>
   <v>       0.85677719       0.42957551       0.50000000 </v>
   <v>       0.99928255       0.57181462       0.50000000 </v>
   <v>       0.14396064       0.57181462       0.50000000 </v>
   <v>       0.28862787       0.57181625       0.50000000 </v>
   <v>       0.43313209       0.57215564       0.50000000 </v>
   <v>       0.71045212       0.57215564       0.50000000 </v>
   <v>       0.85461695       0.57181625       0.50000000 </v>
   <v>       0.99707234       0.71370518       0.50000000 </v>
   <v>       0.14255519       0.71368182       0.50000000 </v>
   <v>       0.28806142       0.71370518       0.50000000 </v>
   <v>       0.43464191       0.71382540       0.50000000 </v>
   <v>       0.58510826       0.71626937       0.50000000 </v>
   <v>       0.70258968       0.71626937       0.50000000 </v>
   <v>       0.85061206       0.71382540       0.50000000 </v>
   <v>       0.99777175       0.85613493       0.50000000 </v>
   <v>       0.14160898       0.85591288       0.50000000 </v>
   <v>       0.28573247       0.85591288       0.50000000 </v>
   <v>       0.42979175       0.85613493       0.50000000 </v>
   <v>       0.57342541       0.85758690       0.50000000 </v>
   <v>       0.71640633       0.86138410       0.50000000 </v>
   <v>       0.85559006       0.85758690       0.50000000 </v>
   <v>       0.04754270       0.09547788       0.50000000 </v>
   <v>       0.18957833       0.09405657       0.50000000 </v>
   <v>       0.33254182       0.09365506       0.50000000 </v>
   <v>       0.47590681       0.09405657       0.50000000 </v>
   <v>       0.61936376       0.09547788       0.50000000 </v>
   <v>       0.76280004       0.09719274       0.50000000 </v>
   <v>       0.90582126       0.09719274       0.50000000 </v>
   <v>       0.04854983       0.23934281       0.50000000 </v>
   <v>       0.19048138       0.23782962       0.50000000 </v>
   <v>       0.33234878       0.23634667       0.50000000 </v>
   <v>       0.47542646       0.23634667       0.50000000 </v>
   <v>       0.61877681       0.23782962       0.50000000 </v>
   <v>       0.76222155       0.23934281       0.50000000 </v>
   <v>       0.90562797       0.23982737       0.50000000 </v>
   <v>       0.04871288       0.38232824       0.50000000 </v>
   <v>       0.19188940       0.38184213       0.50000000 </v>
   <v>       0.33352206       0.38013969       0.50000000 </v>
   <v>       0.47472270       0.37801683       0.50000000 </v>
   <v>       0.61804620       0.38013969       0.50000000 </v>
   <v>       0.76138130       0.38184213       0.50000000 </v>
   <v>       0.90504393       0.38232824       0.50000000 </v>
   <v>       0.04810654       0.52478452       0.50000000 </v>
   <v>       0.19263929       0.52476864       0.50000000 </v>
   <v>       0.33696521       0.52455433       0.50000000 </v>
   <v>       0.47833704       0.52146721       0.50000000 </v>
   <v>       0.61455874       0.52146721       0.50000000 </v>
   <v>       0.75901769       0.52455433       0.50000000 </v>
   <v>       0.90355792       0.52476864       0.50000000 </v>
   <v>       0.04642473       0.66685228       0.50000000 </v>
   <v>       0.19185612       0.66685228       0.50000000 </v>
   <v>       0.33777931       0.66688794       0.50000000 </v>
   <v>       0.48615700       0.66710760       0.50000000 </v>
   <v>       0.75237918       0.66710760       0.50000000 </v>
   <v>       0.90053720       0.66688794       0.50000000 </v>
   <v>       0.04582562       0.80879365       0.50000000 </v>
   <v>       0.19009580       0.80876303       0.50000000 </v>
   <v>       0.33439660       0.80879365       0.50000000 </v>
   <v>       0.47844872       0.80897069       0.50000000 </v>
   <v>       0.62209487       0.81129474       0.50000000 </v>
   <v>       0.76062845       0.81129474       0.50000000 </v>
   <v>       0.90195054       0.80897069       0.50000000 </v>
   <v>       0.04629157       0.95154386       0.50000000 </v>
   <v>       0.18948291       0.95113037       0.50000000 </v>
   <v>       0.33307603       0.95113037       0.50000000 </v>
   <v>       0.47668087       0.95154386       0.50000000 </v>
   <v>       0.62015751       0.95313740       0.50000000 </v>
   <v>       0.76355772       0.95568687       0.50000000 </v>
   <v>       0.90440847       0.95313740       0.50000000 </v>
   <v>       0.56830873       0.56518888       0.50000000 </v>
  </varray>
 </structure>
 <calculation>
  <scstep>
   <time name="dav">    2.36    2.38</time>
   <time name="total">    2.73    2.81</time>
   <energy>
    <i name="alphaZ">    156.50993408 </i>
    <i name="ewald">  58206.77032718 </i>
    <i name="hartreedc"> -70374.19124314 </i>
    <i name="XCdc">   1302.10875049 </i>
    <i name="pawpsdc">  12033.28670802 </i>
    <i name="pawaedc"> -12049.96799276 </i>
    <i name="eentropy">     -0.00000000 </i>
    <i name="bandstr">   -904.56303305 </i>
    <i name="atom">  16260.93880140 </i>
    <i name="e_fr_energy">   4630.89225220 </i>
    <i name="e_wo_entrp">   4630.89225220 </i>
    <i name="e_0_energy">   4630.89225220 </i>
   </energy>
  </scstep>
  <scstep>
   <time name="dav">    3.00    3.05</time>
   <time name="total">    3.00    3.05</time>
   <energy>
    <i name="e_fr_energy">    216.65675468 </i>
    <i name="e_wo_entrp">    216.65675468 </i>
    <i name="e_0_energy">    216.65675468 </i>
   </energy>
  </scstep>
  <scstep>
   <time name="dav">    2.47    2.51</time>
   <time name="total">    2.47    2.51</time>
   <energy>
    <i name="e_fr_energy">   -867.46971516 </i>
    <i name="e_wo_entrp">   -867.46971516 </i>
    <i name="e_0_energy">   -867.46971516 </i>
   </energy>
  </scstep>
  <scstep>
   <time name="dav">    2.47    2.50</time>
   <time name="total">    2.47    2.50</time>
   <energy>
    <i name="e_fr_energy">   -934.19545915 </i>
    <i name="e_wo_entrp">   -934.19545915 </i>
    <i name="e_0_energy">   -934.19545915 </i>
   </energy>
  </scstep>
  <scstep>
   <time name="dav">    2.50    2.53</time>
   <time name="total">    2.74    2.78</time>
   <energy>
    <i name="e_fr_energy">   -935.77554002 </i>
    <i name="e_wo_entrp">   -935.77554002 </i>
    <i name="e_0_energy">   -935.77554002 </i>
   </energy>
  </scstep>
  <scstep>
   <time name="dav">    2.34    2.36</time>
   <time name="total">    2.95    2.98</time>
   <energy>
    <i name="e_fr_energy">   -858.73360392 </i>
    <i name="e_wo_entrp">   -858.73360392 </i>
    <i name="e_0_energy">   -858.73360392 </i>
   </energy>
  </scstep>
  <scstep>
   <time name="dav">    2.75    2.83</time>
   <time name="total">    3.35    3.45</time>
   <energy>
    <i name="e_fr_energy">   -850.19272074 </i>
    <i name="e_wo_entrp">   -850.19272074 </i>
    <i name="e_0_energy">   -850.19272074 </i>
   </energy>
  </scstep>
  <scstep>
   <time name="dav">    2.27    2.30</time>
   <time name="total">    2.87    2.92</time>
   <energy>
    <i name="e_fr_energy">   -845.92450207 </i>
    <i name="e_wo_entrp">   -845.92450117 </i>
    <i name="e_0_energy">   -845.92450162 </i>
   </energy>
  </scstep>
  <scstep>
   <time name="dav">    2.32    2.35</time>
   <time name="total">    2.93    2.98</time>
   <energy>
    <i name="e_fr_energy">   -845.80180337 </i>
    <i name="e_wo_entrp">   -845.80180337 </i>
    <i name="e_0_energy">   -845.80180337 </i>
   </energy>
  </scstep>
  <scstep>
   <time name="dav">    2.36    2.40</time>
   <time name="total">    2.97    3.02</time>
   <energy>
    <i name="e_fr_energy">   -845.64071880 </i>
    <i name="e_wo_entrp">   -845.64071880 </i>
    <i name="e_0_energy">   -845.64071880 </i>
   </energy>
  </scstep>
  <scstep>
   <time name="dav">    2.23    2.27</time>
   <time name="total">    2.84    2.90</time>
   <energy>
    <i name="e_fr_energy">   -845.58972234 </i>
    <i name="e_wo_entrp">   -845.58972234 </i>
    <i name="e_0_energy">   -845.58972234 </i>
   </energy>
  </scstep>
  <scstep>
   <time name="dav">    2.27    2.31</time>
   <time name="total">    2.87    2.93</time>
   <energy>
    <i name="e_fr_energy">   -845.57743985 </i>
    <i name="e_wo_entrp">   -845.57743985 </i>
    <i name="e_0_energy">   -845.57743985 </i>
   </energy>
  </scstep>
  <scstep>
   <time name="dav">    2.21    2.25</time>
   <time name="total">    2.81    2.90</time>
   <energy>
    <i name="e_fr_energy">   -845.57691534 </i>
    <i name="e_wo_entrp">   -845.57691534 </i>
    <i name="e_0_energy">   -845.57691534 </i>
   </energy>
  </scstep>
  <scstep>
   <time name="dav">    2.23    2.25</time>
   <time name="total">    2.84    2.88</time>
   <energy>
    <i name="e_fr_energy">   -845.58237054 </i>
    <i name="e_wo_entrp">   -845.58237054 </i>
    <i name="e_0_energy">   -845.58237054 </i>
   </energy>
  </scstep>
  <scstep>
   <time name="dav">    2.22    2.25</time>
   <time name="total">    2.83    2.87</time>
   <energy>
    <i name="e_fr_energy">   -845.60570089 </i>
    <i name="e_wo_entrp">   -845.60570089 </i>
    <i name="e_0_energy">   -845.60570089 </i>
   </energy>
  </scstep>
  <scstep>
   <time name="dav">    2.17    2.20</time>
   <time name="total">    2.78    2.83</time>
   <energy>
    <i name="e_fr_energy">   -845.63161425 </i>
    <i name="e_wo_entrp">   -845.63161425 </i>
    <i name="e_0_energy">   -845.63161425 </i>
   </energy>
  </scstep>
  <scstep>
   <time name="dav">    2.22    2.26</time>
   <time name="total">    2.84    2.89</time>
   <energy>
    <i name="e_fr_energy">   -845.64525097 </i>
    <i name="e_wo_entrp">   -845.64525097 </i>
    <i name="e_0_energy">   -845.64525097 </i>
   </energy>
  </scstep>
  <scstep>
   <time name="dav">    2.26    2.30</time>
   <time name="total">    2.87    2.94</time>
   <energy>
    <i name="e_fr_energy">   -845.65079868 </i>
    <i name="e_wo_entrp">   -845.65079868 </i>
    <i name="e_0_energy">   -845.65079868 </i>
   </energy>
  </scstep>
  <scstep>
   <time name="dav">    2.22    2.26</time>
   <time name="total">    2.83    2.89</time>
   <energy>
    <i name="e_fr_energy">   -845.65288383 </i>
    <i name="e_wo_entrp">   -845.65288383 </i>
    <i name="e_0_energy">   -845.65288383 </i>
   </energy>
  </scstep>
  <scstep>
   <time name="dav">    2.25    2.28</time>
   <time name="total">    2.86    2.92</time>
   <energy>
    <i name="e_fr_energy">   -845.65366380 </i>
    <i name="e_wo_entrp">   -845.65366380 </i>
    <i name="e_0_energy">   -845.65366380 </i>
   </energy>
  </scstep>
  <scstep>
   <time name="dav">    2.28    2.30</time>
   <time name="total">    2.89    2.93</time>
   <energy>
    <i name="e_fr_energy">   -845.65395648 </i>
    <i name="e_wo_entrp">   -845.65395648 </i>
    <i name="e_0_energy">   -845.65395648 </i>
   </energy>
  </scstep>
  <scstep>
   <time name="dav">    2.18    2.20</time>
   <time name="total">    2.79    2.83</time>
   <energy>
    <i name="e_fr_energy">   -845.65413421 </i>
    <i name="e_wo_entrp">   -845.65413421 </i>
    <i name="e_0_energy">   -845.65413421 </i>
   </energy>
  </scstep>
  <scstep>
   <time name="dav">    2.19    2.21</time>
   <time name="total">    2.80    2.84</time>
   <energy>
    <i name="e_fr_energy">   -845.65424642 </i>
    <i name="e_wo_entrp">   -845.65424642 </i>
    <i name="e_0_energy">   -845.65424642 </i>
   </energy>
  </scstep>
  <scstep>
   <time name="dav">    2.25    2.27</time>
   <time name="total">    2.87    2.90</time>
   <energy>
    <i name="e_fr_energy">   -845.65431579 </i>
    <i name="e_wo_entrp">   -845.65431579 </i>
    <i name="e_0_energy">   -845.65431579 </i>
   </energy>
  </scstep>
  <scstep>
   <time name="dav">    2.27    2.29</time>
   <time name="total">    2.88    2.93</time>
   <energy>
    <i name="e_fr_energy">   -845.65434776 </i>
    <i name="e_wo_entrp">   -845.65434776 </i>
    <i name="e_0_energy">   -845.65434776 </i>
   </energy>
  </scstep>
  <scstep>
   <time name="dav">    2.27    2.29</time>
   <time name="total">    2.88    2.92</time>
   <energy>
    <i name="e_fr_energy">   -845.65436545 </i>
    <i name="e_wo_entrp">   -845.65436545 </i>
    <i name="e_0_energy">   -845.65436545 </i>
   </energy>
  </scstep>
  <scstep>
   <time name="dav">    2.28    2.30</time>
   <time name="total">    2.90    2.93</time>
   <energy>
    <i name="e_fr_energy">   -845.65437111 </i>
    <i name="e_wo_entrp">   -845.65437111 </i>
    <i name="e_0_energy">   -845.65437111 </i>
   </energy>
  </scstep>
  <scstep>
   <time name="dav">    1.95    1.97</time>
   <time name="total">    2.57    2.60</time>
   <energy>
    <i name="e_fr_energy">   -845.65437282 </i>
    <i name="e_wo_entrp">   -845.65437282 </i>
    <i name="e_0_energy">   -845.65437282 </i>
   </energy>
  </scstep>
  <scstep>
   <time name="dav">    1.96    1.98</time>
   <time name="total">    2.58    2.62</time>
   <energy>
    <i name="e_fr_energy">   -845.65437383 </i>
    <i name="e_wo_entrp">   -845.65437383 </i>
    <i name="e_0_energy">   -845.65437383 </i>
   </energy>
  </scstep>
  <scstep>
   <time name="dav">    1.70    1.72</time>
   <time name="total">    2.32    2.36</time>
   <energy>
    <i name="e_fr_energy">   -845.65437401 </i>
    <i name="e_wo_entrp">   -845.65437401 </i>
    <i name="e_0_energy">   -845.65437401 </i>
   </energy>
  </scstep>
  <scstep>
   <time name="dav">    1.72    1.73</time>
   <time name="total">    2.35    2.37</time>
   <energy>
    <i name="e_fr_energy">   -845.65437408 </i>
    <i name="e_wo_entrp">   -845.65437408 </i>
    <i name="e_0_energy">   -845.65437408 </i>
   </energy>
  </scstep>
  <scstep>
   <time name="dav">    1.69    1.70</time>
   <time name="total">    2.31    2.34</time>
   <energy>
    <i name="e_fr_energy">   -845.65437410 </i>
    <i name="e_wo_entrp">   -845.65437410 </i>
    <i name="e_0_energy">   -845.65437410 </i>
   </energy>
  </scstep>
  <scstep>
   <time name="dav">    1.74    1.76</time>
   <time name="total">    2.12    2.14</time>
   <energy>
    <i name="alphaZ">    156.50993408 </i>
    <i name="ewald">  58206.77032718 </i>
    <i name="hartreedc"> -72314.28132352 </i>
    <i name="XCdc">   1369.72404408 </i>
    <i name="pawpsdc">  44018.82545226 </i>
    <i name="pawaedc"> -44054.16732553 </i>
    <i name="eentropy">     -0.00000000 </i>
    <i name="bandstr">  -4489.97428407 </i>
    <i name="atom">  16260.93880140 </i>
    <i name="e_fr_energy">   -845.65437411 </i>
    <i name="e_wo_entrp">   -845.65437411 </i>
    <i name="e_0_energy">   -845.65437411 </i>
   </energy>
  </scstep>
  <structure>
   <crystal>
    <varray name="basis" >
     <v>      17.59966831       0.00000000       0.00000000 </v>
     <v>      -8.79983416      15.24175986       0.00000000 </v>
     <v>       0.00000000       0.00000000      19.92151445 </v>
    </varray>
    <i name="volume">   5343.94461817 </i>
    <varray name="rec_basis" >
     <v>       0.05681925       0.03280461       0.00000000 </v>
     <v>       0.00000000       0.06560922       0.00000000 </v>
     <v>       0.00000000       0.00000000       0.05019699 </v>
    </varray>
   </crystal>
   <varray name="positions" >
    <v>       0.99905391       0.00005992       0.49962381 </v>
    <v>       0.14164706       0.99871895       0.50000000 </v>
    <v>       0.28492260       0.99841663       0.50000000 </v>
    <v>       0.42850047       0.99871895       0.50000000 </v>
    <v>       0.57205839       0.00005992       0.50000000 </v>
    <v>       0.71530655       0.00214292       0.50000000 </v>
    <v>       0.85826494       0.00214292       0.50000000 </v>
    <v>       0.00080792       0.14408264       0.50000000 </v>
    <v>       0.14259355       0.14244783       0.50000000 </v>
    <v>       0.28470221       0.14112972       0.50000000 </v>
    <v>       0.42785608       0.14112972       0.50000000 </v>
    <v>       0.57128286       0.14244783       0.50000000 </v>
    <v>       0.71470329       0.14408264       0.50000000 </v>
    <v>       0.85805263       0.14467669       0.50000000 </v>
    <v>       0.00095476       0.28713011       0.50000000 </v>
    <v>       0.14372552       0.28645370       0.50000000 </v>
    <v>       0.28540977       0.28469374       0.50000000 </v>
    <v>       0.42724431       0.28306005       0.50000000 </v>
    <v>       0.57071254       0.28469374       0.50000000 </v>
    <v>       0.71415674       0.28645370       0.50000000 </v>
    <v>       0.85760392       0.28713011       0.50000000 </v>
    <v>       0.00054479       0.42966101       0.50000000 </v>
    <v>       0.14422690       0.42957551       0.50000000 </v>
    <v>       0.28730213       0.42918005       0.50000000 </v>
    <v>       0.42797654       0.42569726       0.50000000 </v>
    <v>       0.56914930       0.42569726       0.50000000 </v>
    <v>       0.71330650       0.42918005       0.50000000 </v>
    <v>       0.85677719       0.42957551       0.50000000 </v>
    <v>       0.99928255       0.57181462       0.50000000 </v>
    <v>       0.14396064       0.57181462       0.50000000 </v>
    <v>       0.28862787       0.57181625       0.50000000 </v>
    <v>       0.43313209       0.57215564       0.50000000 </v>
    <v>       0.71045212       0.57215564       0.50000000 </v>
    <v>       0.85461695       0.57181625       0.50000000 </v>
    <v>       0.99707234       0.71370518       0.50000000 </v>
    <v>       0.14255519       0.71368182       0.50000000 </v>
    <v>       0.28806142       0.71370518       0.50000000 </v>
    <v>       0.43464191       0.71382540       0.50000000 </v>
    <v>       0.58510826       0.71626937       0.50000000 </v>
    <v>       0.70258968       0.71626937       0.50000000 </v>
    <v>       0.85061206       0.71382540       0.50000000 </v>
    <v>       0.99777175       0.85613493       0.50000000 </v>
    <v>       0.14160898       0.85591288       0.50000000 </v>
    <v>       0.28573247       0.85591288       0.50000000 </v>
    <v>       0.42979175       0.85613493       0.50000000 </v>
    <v>       0.57342541       0.85758690       0.50000000 </v>
    <v>       0.71640633       0.86138410       0.50000000 </v>
    <v>       0.85559006       0.85758690       0.50000000 </v>
    <v>       0.04754270       0.09547788       0.50000000 </v>
    <v>       0.18957833       0.09405657       0.50000000 </v>
    <v>       0.33254182       0.09365506       0.50000000 </v>
    <v>       0.47590681       0.09405657       0.50000000 </v>
    <v>       0.61936376       0.09547788       0.50000000 </v>
    <v>       0.76280004       0.09719274       0.50000000 </v>
    <v>       0.90582126       0.09719274       0.50000000 </v>
    <v>       0.04854983       0.23934281       0.50000000 </v>
    <v>       0.19048138       0.23782962       0.50000000 </v>
    <v>       0.33234878       0.23634667       0.50000000 </v>
    <v>       0.47542646       0.23634667       0.50000000 </v>
    <v>       0.61877681       0.23782962       0.50000000 </v>
    <v>       0.76222155       0.23934281       0.50000000 </v>
    <v>       0.90562797       0.23982737       0.50000000 </v>
    <v>       0.04871288       0.38232824       0.50000000 </v>
    <v>       0.19188940       0.38184213       0.50000000 </v>
    <v>       0.33352206       0.38013969       0.50000000 </v>
    <v>       0.47472270       0.37801683       0.50000000 </v>
    <v>       0.61804620       0.38013969       0.50000000 </v>
    <v>       0.76138130       0.38184213       0.50000000 </v>
    <v>       0.90504393       0.38232824       0.50000000 </v>
    <v>       0.04810654       0.52478452       0.50000000 </v>
    <v>       0.19263929       0.52476864       0.50000000 </v>
    <v>       0.33696521       0.52455433       0.50000000 </v>
    <v>       0.47833704       0.52146721       0.50000000 </v>
    <v>       0.61455874       0.52146721       0.50000000 </v>
    <v>       0.75901769       0.52455433       0.50000000 </v>
    <v>       0.90355792       0.52476864       0.50000000 </v>
    <v>       0.04642473       0.66685228       0.50000000 </v>
    <v>       0.19185612       0.66685228       0.50000000 </v>
    <v>       0.33777931       0.66688794       0.50000000 </v>
    <v>       0.48615700       0.66710760       0.50000000 </v>
    <v>       0.75237918       0.66710760       0.50000000 </v>
    <v>       0.90053720       0.66688794       0.50000000 </v>
    <v>       0.04582562       0.80879365       0.50000000 </v>
    <v>       0.19009580       0.80876303       0.50000000 </v>
    <v>       0.33439660       0.80879365       0.50000000 </v>
    <v>       0.47844872       0.80897069       0.50000000 </v>
    <v>       0.62209487       0.81129474       0.50000000 </v>
    <v>       0.76062845       0.81129474       0.50000000 </v>
    <v>       0.90195054       0.80897069       0.50000000 </v>
    <v>       0.04629157       0.95154386       0.50000000 </v>
    <v>       0.18948291       0.95113037       0.50000000 </v>
    <v>       0.33307603       0.95113037       0.50000000 </v>
    <v>       0.47668087       0.95154386       0.50000000 </v>
    <v>       0.62015751       0.95313740       0.50000000 </v>
    <v>       0.76355772       0.95568687       0.50000000 </v>
    <v>       0.90440847       0.95313740       0.50000000 </v>
    <v>       0.56830873       0.56518888       0.50000000 </v>
   </varray>
  </structure>
  <varray name="forces" >
   <v>       0.29107191      -0.02139414       0.10674102 </v>
   <v>      -0.05060726      -0.01559815      -0.00037613 </v>
   <v>      -0.00383709      -0.01458755       0.00047432 </v>
   <v>       0.01976927      -0.00995908      -0.00000753 </v>
   <v>       0.03751286      -0.02612293      -0.00000674 </v>
   <v>      -0.03761208      -0.04787110       0.00048188 </v>
   <v>       0.00410759      -0.04310290      -0.00011497 </v>
   <v>       0.00243372      -0.01221252      -0.00030084 </v>
   <v>      -0.01962066      -0.04081605      -0.00032000 </v>
   <v>      -0.01127296      -0.03604007      -0.00008495 </v>
   <v>       0.00557030      -0.03464737       0.00001511 </v>
   <v>       0.02538087      -0.02552356       0.00001484 </v>
   <v>       0.00385641      -0.02586686       0.00001345 </v>
   <v>      -0.00338702      -0.03911050      -0.00007294 </v>
   <v>      -0.00696429      -0.02803193       0.00046357 </v>
   <v>       0.00610529      -0.04447792      -0.00007562 </v>
   <v>      -0.02908311      -0.00408496       0.00048094 </v>
   <v>      -0.00086178      -0.09481637       0.00001850 </v>
   <v>       0.02954564      -0.00313144       0.00000807 </v>
   <v>      -0.00628857      -0.04400199       0.00001267 </v>
   <v>       0.00778244      -0.02838063       0.00001407 </v>
   <v>       0.00011046       0.00817290      -0.00000708 </v>
   <v>      -0.02506833      -0.00072953       0.00001456 </v>
   <v>       0.05767902      -0.13886130       0.00001699 </v>
   <v>      -0.11188874      -0.20092125      -0.00005130 </v>
   <v>       0.11168323      -0.20076916      -0.00000319 </v>
   <v>      -0.05767618      -0.13858570       0.00001968 </v>
   <v>       0.02517285      -0.00018525       0.00001533 </v>
   <v>       0.01703348       0.03053152      -0.00000902 </v>
   <v>      -0.01717230       0.02974832       0.00001592 </v>
   <v>      -0.08596982       0.12811484       0.00001170 </v>
   <v>       0.05027425       0.39559783       0.00002244 </v>
   <v>      -0.05020901       0.39507599      -0.00000412 </v>
   <v>       0.08603027       0.12938064       0.00001131 </v>
   <v>      -0.00683337       0.02733940       0.00047738 </v>
   <v>      -0.00082834       0.02961170       0.00001181 </v>
   <v>       0.00742000       0.02278625       0.00001400 </v>
   <v>       0.08551969       0.04266913       0.00001105 </v>
   <v>       1.36397018       1.24884654      -0.00042553 </v>
   <v>      -1.36297821       1.24564221      -0.00007628 </v>
   <v>      -0.08565193       0.04328183      -0.00006007 </v>
   <v>      -0.03845453       0.01931810      -0.00033411 </v>
   <v>      -0.01623527      -0.00187639      -0.00007538 </v>
   <v>       0.01066880      -0.00409217       0.00001520 </v>
   <v>       0.04495731      -0.00775949       0.00000995 </v>
   <v>       0.14874565       0.03603618       0.00008524 </v>
   <v>      -0.00330336      -0.25516489      -0.00017514 </v>
   <v>      -0.14406853       0.00839125      -0.00013062 </v>
   <v>      -0.02714366       0.03139588      -0.03788760 </v>
   <v>       0.01228435       0.03243387      -0.00156284 </v>
   <v>       0.00257183       0.02897726      -0.00004668 </v>
   <v>      -0.00888166       0.02362771      -0.00000976 </v>
   <v>      -0.02478939       0.03180082      -0.00001255 </v>
   <v>      -0.01009926       0.02543833      -0.00004459 </v>
   <v>       0.01389077       0.01787678      -0.00154764 </v>
   <v>       0.01249852       0.03622158       0.00207812 </v>
   <v>      -0.01235267       0.00291990       0.00214241 </v>
   <v>       0.01614779       0.03831215      -0.00004579 </v>
   <v>      -0.01476983       0.03677927      -0.00001402 </v>
   <v>       0.00950317       0.00345775      -0.00000864 </v>
   <v>      -0.01543232       0.03458471      -0.00001580 </v>
   <v>       0.00027766       0.02881069      -0.00004765 </v>
   <v>       0.01076406       0.02558660      -0.00014059 </v>
   <v>       0.04773933       0.05965938      -0.00018777 </v>
   <v>      -0.02212063      -0.19908603      -0.00012971 </v>
   <v>       0.00021780       0.11139409       0.00000149 </v>
   <v>       0.02197146      -0.19938508      -0.00001582 </v>
   <v>      -0.04784805       0.05915562      -0.00001303 </v>
   <v>      -0.01097028       0.02527084      -0.00000972 </v>
   <v>       0.00020871       0.00801449      -0.00000485 </v>
   <v>       0.02615665      -0.00745036      -0.00000025 </v>
   <v>       0.19067628       0.11303931       0.00000382 </v>
   <v>       1.02301518      -1.56286234      -0.00013394 </v>
   <v>      -1.02293038      -1.56289470      -0.00008178 </v>
   <v>      -0.19119025       0.11268845      -0.00001260 </v>
   <v>      -0.02607594      -0.00808897      -0.00000955 </v>
   <v>       0.01033438      -0.03538515      -0.00014988 </v>
   <v>      -0.00868301      -0.03402469       0.00000005 </v>
   <v>      -0.05777625      -0.06649618      -0.00000887 </v>
   <v>      -0.26911474       0.01011202      -0.00003839 </v>
   <v>       0.26791394       0.01102685      -0.00004448 </v>
   <v>       0.05674448      -0.06795163      -0.00004798 </v>
   <v>       0.03981206      -0.02129142       0.00215413 </v>
   <v>       0.00272826      -0.01291852      -0.00018665 </v>
   <v>      -0.03446533      -0.01334392       0.00000175 </v>
   <v>      -0.08343355      -0.01305174      -0.00000990 </v>
   <v>      -0.88360401       0.24563552       0.00005509 </v>
   <v>       0.89042762       0.25279237       0.00248491 </v>
   <v>       0.07120352      -0.01333968      -0.00154637 </v>
   <v>      -0.08489435       0.05395881      -0.03838397 </v>
   <v>       0.01631467      -0.00546719       0.00209819 </v>
   <v>      -0.00739775      -0.00365477      -0.00014026 </v>
   <v>      -0.02978756       0.01709102      -0.00000447 </v>
   <v>      -0.10800774       0.11909780      -0.00017222 </v>
   <v>       0.00656305       0.01811178       0.00208192 </v>
   <v>      -0.01454619       0.07841750      -0.03767965 </v>
   <v>      -0.00017949      -0.11881829       0.00051498 </v>
  </varray>
  <varray name="stress" >
   <v>     -10.60148257       0.02401816      -0.00065425 </v>
   <v>       0.02401816       3.03461266       0.00004821 </v>
   <v>      -0.00065425       0.00004821      -0.42580192 </v>
  </varray>
  <energy>
   <i name="e_fr_energy">   -845.65437411 </i>
   <i name="e_wo_entrp">   -845.65437411 </i>
   <i name="e_0_energy">     -0.00000000 </i>
  </energy>
  <time name="totalsc">   98.52  100.17</time>
  <eigenvalues>
   <array>
    <dimension dim="1">band</dimension>
    <dimension dim="2">kpoint</dimension>
    <dimension dim="3">spin</dimension>
    <field>eigene</field>
    <field>occ</field>
    <set>
     <set comment="spin 1">
      <set comment="kpoint 1">
       <r>  -22.5412    1.0000 </r>
       <r>  -22.0194    1.0000 </r>
       <r>  -21.7731    1.0000 </r>
       <r>  -21.7429    1.0000 </r>
       <r>  -21.6958    1.0000 </r>
       <r>  -21.6529    1.0000 </r>
       <r>  -21.6206    1.0000 </r>
       <r>  -21.2371    1.0000 </r>
       <r>  -21.0695    1.0000 </r>
       <r>  -21.0043    1.0000 </r>
       <r>  -20.9698    1.0000 </r>
       <r>  -20.9250    1.0000 </r>
       <r>  -20.8755    1.0000 </r>
       <r>  -20.7437    1.0000 </r>
       <r>  -20.7041    1.0000 </r>
       <r>  -20.6631    1.0000 </r>
       <r>  -20.5950    1.0000 </r>
       <r>  -20.5688    1.0000 </r>
       <r>  -20.4272    1.0000 </r>
       <r>  -19.9814    1.0000 </r>
       <r>  -19.9248    1.0000 </r>
       <r>  -19.8035    1.0000 </r>
       <r>  -19.7633    1.0000 </r>
       <r>  -19.7362    1.0000 </r>
       <r>  -19.7330    1.0000 </r>
       <r>  -19.7072    1.0000 </r>
       <r>  -19.6985    1.0000 </r>
       <r>  -19.6438    1.0000 </r>
       <r>  -19.6388    1.0000 </r>
       <r>  -19.6315    1.0000 </r>
       <r>  -19.4930    1.0000 </r>
       <r>  -19.4064    1.0000 </r>
       <r>  -19.3660    1.0000 </r>
       <r>  -19.3555    1.0000 </r>
       <r>  -19.2902    1.0000 </r>
       <r>  -19.2388    1.0000 </r>
       <r>  -19.1069    1.0000 </r>
       <r>  -18.9982    1.0000 </r>
       <r>  -18.9323    1.0000 </r>
       <r>  -18.8758    1.0000 </r>
       <r>  -18.8520    1.0000 </r>
       <r>  -18.8342    1.0000 </r>
       <r>  -18.7686    1.0000 </r>
       <r>  -18.7516    1.0000 </r>
       <r>  -18.7294    1.0000 </r>
       <r>  -18.7128    1.0000 </r>
       <r>  -18.6918    1.0000 </r>
       <r>  -18.4493    1.0000 </r>
       <r>  -14.1409    1.0000 </r>
       <r>  -13.1813    1.0000 </r>
       <r>  -13.1569    1.0000 </r>
       <r>  -13.1086    1.0000 </r>
       <r>  -13.1025    1.0000 </r>
       <r>  -13.0797    1.0000 </r>
       <r>  -13.0151    1.0000 </r>
       <r>  -12.9571    1.0000 </r>
       <r>  -12.9530    1.0000 </r>
       <r>  -12.9349    1.0000 </r>
       <r>  -12.8046    1.0000 </r>
       <r>  -12.7700    1.0000 </r>
       <r>  -12.6022    1.0000 </r>
       <r>  -12.5042    1.0000 </r>
       <r>  -12.4852    1.0000 </r>
       <r>  -12.3783    1.0000 </r>
       <r>  -12.3085    1.0000 </r>
       <r>  -12.2969    1.0000 </r>
       <r>  -12.1749    1.0000 </r>
       <r>  -11.9011    1.0000 </r>
       <r>  -11.8843    1.0000 </r>
       <r>  -11.7657    1.0000 </r>
       <r>  -11.7636    1.0000 </r>
       <r>  -11.7515    1.0000 </r>
       <r>  -11.7413    1.0000 </r>
       <r>  -11.6973    1.0000 </r>
       <r>  -11.6585    1.0000 </r>
       <r>  -11.6314    1.0000 </r>
       <r>  -11.5412    1.0000 </r>
       <r>  -11.4211    1.0000 </r>
       <r>  -11.2002    1.0000 </r>
       <r>  -11.1252    1.0000 </r>
       <r>  -11.0828    1.0000 </r>
       <r>  -11.0579    1.0000 </r>
       <r>  -10.9669    1.0000 </r>
       <r>  -10.9119    1.0000 </r>
       <r>  -10.6840    1.0000 </r>
       <r>  -10.4609    1.0000 </r>
       <r>  -10.4309    1.0000 </r>
       <r>  -10.3502    1.0000 </r>
       <r>  -10.2545    1.0000 </r>
       <r>  -10.2070    1.0000 </r>
       <r>   -9.8904    1.0000 </r>
       <r>   -9.7704    1.0000 </r>
       <r>   -9.7657    1.0000 </r>
       <r>   -9.7241    1.0000 </r>
       <r>   -9.6757    1.0000 </r>
       <r>   -9.5852    1.0000 </r>
       <r>   -9.5408    1.0000 </r>
       <r>   -9.4965    1.0000 </r>
       <r>   -9.4622    1.0000 </r>
       <r>   -9.3523    1.0000 </r>
       <r>   -9.3471    1.0000 </r>
       <r>   -9.2881    1.0000 </r>
       <r>   -9.2622    1.0000 </r>
       <r>   -9.2557    1.0000 </r>
       <r>   -9.2494    1.0000 </r>
       <r>   -9.2366    1.0000 </r>
       <r>   -9.2238    1.0000 </r>
       <r>   -9.2231    1.0000 </r>
       <r>   -9.2078    1.0000 </r>
       <r>   -9.2039    1.0000 </r>
       <r>   -9.1979    1.0000 </r>
       <r>   -9.1974    1.0000 </r>
       <r>   -9.1558    1.0000 </r>
       <r>   -9.1354    1.0000 </r>
       <r>   -9.1101    1.0000 </r>
       <r>   -9.1091    1.0000 </r>
       <r>   -9.0998    1.0000 </r>
       <r>   -9.0451    1.0000 </r>
       <r>   -8.9955    1.0000 </r>
       <r>   -8.8465    1.0000 </r>
       <r>   -8.7978    1.0000 </r>
       <r>   -8.6531    1.0000 </r>
       <r>   -8.5069    1.0000 </r>
       <r>   -8.4797    1.0000 </r>
       <r>   -8.4412    1.0000 </r>
       <r>   -8.3279    1.0000 </r>
       <r>   -8.2233    1.0000 </r>
       <r>   -8.2036    1.0000 </r>
       <r>   -8.1975    1.0000 </r>
       <r>   -8.1712    1.0000 </r>
       <r>   -8.1503    1.0000 </r>
       <r>   -8.1212    1.0000 </r>
       <r>   -8.0380    1.0000 </r>
       <r>   -7.9683    1.0000 </r>
       <r>   -7.9511    1.0000 </r>
       <r>   -7.8714    1.0000 </r>
       <r>   -7.8478    1.0000 </r>
       <r>   -7.8441    1.0000 </r>
       <r>   -7.8043    1.0000 </r>
       <r>   -7.7998    1.0000 </r>
       <r>   -7.7967    1.0000 </r>
       <r>   -7.7391    1.0000 </r>
       <r>   -7.7340    1.0000 </r>
       <r>   -7.7127    1.0000 </r>
       <r>   -7.6784    1.0000 </r>
       <r>   -7.6766    1.0000 </r>
       <r>   -7.6624    1.0000 </r>
       <r>   -7.6379    1.0000 </r>
       <r>   -7.6306    1.0000 </r>
       <r>   -7.4418    1.0000 </r>
       <r>   -7.4376    1.0000 </r>
       <r>   -7.4296    1.0000 </r>
       <r>   -7.3820    1.0000 </r>
       <r>   -7.3592    1.0000 </r>
       <r>   -7.2734    1.0000 </r>
       <r>   -6.8295    1.0000 </r>
       <r>   -6.7598    1.0000 </r>
       <r>   -6.6201    1.0000 </r>
       <r>   -6.6061    1.0000 </r>
       <r>   -6.5426    1.0000 </r>
       <r>   -6.5422    1.0000 </r>
       <r>   -6.5028    1.0000 </r>
       <r>   -6.4883    1.0000 </r>
       <r>   -6.4566    1.0000 </r>
       <r>   -6.4564    1.0000 </r>
       <r>   -6.4407    1.0000 </r>
       <r>   -6.4369    1.0000 </r>
       <r>   -6.4105    1.0000 </r>
       <r>   -6.4050    1.0000 </r>
       <r>   -6.3598    1.0000 </r>
       <r>   -6.3472    1.0000 </r>
       <r>   -6.3170    1.0000 </r>
       <r>   -6.1114    1.0000 </r>
       <r>   -5.9694    1.0000 </r>
       <r>   -5.9246    1.0000 </r>
       <r>   -5.8872    1.0000 </r>
       <r>   -5.8778    1.0000 </r>
       <r>   -5.8613    1.0000 </r>
       <r>   -5.7816    1.0000 </r>
       <r>   -5.7790    1.0000 </r>
       <r>   -5.5273    1.0000 </r>
       <r>   -5.2203    1.0000 </r>
       <r>   -5.1997    1.0000 </r>
       <r>   -5.1971    1.0000 </r>
       <r>   -5.1405    1.0000 </r>
       <r>   -5.1321    1.0000 </r>
       <r>   -5.1037    1.0000 </r>
       <r>   -5.0015    1.0000 </r>
       <r>   -4.9441    1.0000 </r>
       <r>   -4.9161    1.0000 </r>
       <r>   -4.9064    1.0000 </r>
       <r>   -4.8990    1.0000 </r>
       <r>   -4.7356    1.0000 </r>
       <r>   -1.3173    1.0000 </r>
       <r>   -1.2039    0.0000 </r>
       <r>    0.0582    0.0000 </r>
       <r>    0.2051    0.0000 </r>
       <r>    0.2408    0.0000 </r>
       <r>    0.2591    0.0000 </r>
       <r>    0.2625    0.0000 </r>
       <r>    0.3040    0.0000 </r>
       <r>    0.3056    0.0000 </r>
       <r>    0.3785    0.0000 </r>
       <r>    0.3954    0.0000 </r>
       <r>    0.4342    0.0000 </r>
       <r>    0.4791    0.0000 </r>
       <r>    0.5271    0.0000 </r>
       <r>    0.6084    0.0000 </r>
       <r>    0.7471    0.0000 </r>
       <r>    0.7484    0.0000 </r>
       <r>    0.7786    0.0000 </r>
       <r>    0.8063    0.0000 </r>
       <r>    0.8128    0.0000 </r>
       <r>    0.8260    0.0000 </r>
       <r>    0.8392    0.0000 </r>
       <r>    0.8590    0.0000 </r>
       <r>    0.8697    0.0000 </r>
       <r>    0.9799    0.0000 </r>
       <r>    1.0192    0.0000 </r>
       <r>    1.0607    0.0000 </r>
       <r>    1.1189    0.0000 </r>
       <r>    1.4953    0.0000 </r>
       <r>    1.6734    0.0000 </r>
       <r>    1.6972    0.0000 </r>
       <r>    1.7070    0.0000 </r>
       <r>    1.7238    0.0000 </r>
       <r>    1.7401    0.0000 </r>
       <r>    1.7437    0.0000 </r>
       <r>    1.8056    0.0000 </r>
       <r>    1.8071    0.0000 </r>
       <r>    1.8473    0.0000 </r>
       <r>    1.8483    0.0000 </r>
       <r>    1.8788    0.0000 </r>
       <r>    1.8822    0.0000 </r>
       <r>    1.9050    0.0000 </r>
       <r>    1.9068    0.0000 </r>
       <r>    1.9263    0.0000 </r>
       <r>    1.9834    0.0000 </r>
       <r>    2.0300    0.0000 </r>
       <r>    2.1060    0.0000 </r>
       <r>    2.1105    0.0000 </r>
       <r>    2.1289    0.0000 </r>
       <r>    2.1347    0.0000 </r>
       <r>    2.1405    0.0000 </r>
      </set>
     </set>
    </set>
   </array>
  </eigenvalues>
  <separator name="orbital magnetization" >
   <v name="MAGDIPOLOUT">      0.00000000      0.00000000      0.00000000</v>
  </separator>
  <dos>
   <i name="efermi">     -1.25220996 </i>
   <total>
    <array>
     <dimension dim="1">gridpoints</dimension>
     <dimension dim="2">spin</dimension>
     <field>energy</field>
     <field>total</field>
     <field>integrated</field>
     <set>
      <set comment="spin 1">
       <r>   -23.7753     0.0000     0.0000 </r>
       <r>   -23.6848     0.0000     0.0000 </r>
       <r>   -23.5943     0.0000     0.0000 </r>
       <r>   -23.5038     0.0000     0.0000 </r>
       <r>   -23.4133     0.0000     0.0000 </r>
       <r>   -23.3228     0.0000     0.0000 </r>
       <r>   -23.2323     0.0000     0.0000 </r>
       <r>   -23.1418     0.0000     0.0000 </r>
       <r>   -23.0513     0.0000     0.0000 </r>
       <r>   -22.9608     0.0000     0.0000 </r>
       <r>   -22.8703     0.0000     0.0000 </r>
       <r>   -22.7798     0.0000     0.0000 </r>
       <r>   -22.6893     0.0000     0.0000 </r>
       <r>   -22.5988     0.0000     0.0000 </r>
       <r>   -22.5083    22.0995     2.0000 </r>
       <r>   -22.4178     0.0000     2.0000 </r>
       <r>   -22.3273     0.0000     2.0000 </r>
       <r>   -22.2368     0.0000     2.0000 </r>
       <r>   -22.1463     0.0000     2.0000 </r>
       <r>   -22.0558     0.0000     2.0000 </r>
       <r>   -21.9653    22.0995     4.0000 </r>
       <r>   -21.8748     0.0000     4.0000 </r>
       <r>   -21.7843     1.2552     4.1136 </r>
       <r>   -21.6938    56.3864     9.2165 </r>
       <r>   -21.6033    44.0393    13.9855 </r>
       <r>   -21.5128     0.0000    14.0000 </r>
       <r>   -21.4223     0.0000    14.0000 </r>
       <r>   -21.3318     0.0000    14.0000 </r>
       <r>   -21.2413     6.0989    14.5519 </r>
       <r>   -21.1508     0.0000    16.0000 </r>
       <r>   -21.0603    19.9363    17.8042 </r>
       <r>   -20.9698    33.0835    20.9940 </r>
       <r>   -20.8793    28.5737    24.5859 </r>
       <r>   -20.7888     0.0000    26.0000 </r>
       <r>   -20.6983    39.6328    29.5868 </r>
       <r>   -20.6078    22.8816    32.0708 </r>
       <r>   -20.5173    43.4170    36.0000 </r>
       <r>   -20.4268    11.5649    37.0466 </r>
       <r>   -20.3363     0.0000    38.0000 </r>
       <r>   -20.2458     0.0000    38.0000 </r>
       <r>   -20.1553     0.0000    38.0000 </r>
       <r>   -20.0648     0.0000    38.0000 </r>
       <r>   -19.9743    18.6075    39.6840 </r>
       <r>   -19.8838    22.0995    42.0000 </r>
       <r>   -19.7933    20.4325    43.8491 </r>
       <r>   -19.7028    88.4722    52.0067 </r>
       <r>   -19.6123    66.2239    59.9932 </r>
       <r>   -19.5218     0.0005    60.0000 </r>
       <r>   -19.4313    22.1038    62.0004 </r>
       <r>   -19.3408    65.8736    67.9620 </r>
       <r>   -19.2503    23.2456    70.1037 </r>
       <r>   -19.1598    20.9535    72.0000 </r>
       <r>   -19.0693    22.0995    74.0000 </r>
       <r>   -18.9788    22.0313    75.9938 </r>
       <r>   -18.8883    22.9329    78.0754 </r>
       <r>   -18.7978    65.4657    84.0000 </r>
       <r>   -18.7073    83.8820    91.5913 </r>
       <r>   -18.6168    21.7881    94.0000 </r>
       <r>   -18.5263     0.0000    94.0000 </r>
       <r>   -18.4358    21.4639    95.9425 </r>
       <r>   -18.3453     0.0000    96.0000 </r>
       <r>   -18.2548     0.0000    96.0000 </r>
       <r>   -18.1643     0.0000    96.0000 </r>
       <r>   -18.0738     0.0000    96.0000 </r>
       <r>   -17.9833     0.0000    96.0000 </r>
       <r>   -17.8928     0.0000    96.0000 </r>
       <r>   -17.8023     0.0000    96.0000 </r>
       <r>   -17.7118     0.0000    96.0000 </r>
       <r>   -17.6213     0.0000    96.0000 </r>
       <r>   -17.5308     0.0000    96.0000 </r>
       <r>   -17.4403     0.0000    96.0000 </r>
       <r>   -17.3498     0.0000    96.0000 </r>
       <r>   -17.2593     0.0000    96.0000 </r>
       <r>   -17.1688     0.0000    96.0000 </r>
       <r>   -17.0783     0.0000    96.0000 </r>
       <r>   -16.9878     0.0000    96.0000 </r>
       <r>   -16.8973     0.0000    96.0000 </r>
       <r>   -16.8068     0.0000    96.0000 </r>
       <r>   -16.7163     0.0000    96.0000 </r>
       <r>   -16.6258     0.0000    96.0000 </r>
       <r>   -16.5353     0.0000    96.0000 </r>
       <r>   -16.4448     0.0000    96.0000 </r>
       <r>   -16.3543     0.0000    96.0000 </r>
       <r>   -16.2638     0.0000    96.0000 </r>
       <r>   -16.1733     0.0000    96.0000 </r>
       <r>   -16.0828     0.0000    96.0000 </r>
       <r>   -15.9923     0.0000    96.0000 </r>
       <r>   -15.9018     0.0000    96.0000 </r>
       <r>   -15.8113     0.0000    96.0000 </r>
       <r>   -15.7208     0.0000    96.0000 </r>
       <r>   -15.6303     0.0000    96.0000 </r>
       <r>   -15.5398     0.0000    96.0000 </r>
       <r>   -15.4493     0.0000    96.0000 </r>
       <r>   -15.3588     0.0000    96.0000 </r>
       <r>   -15.2683     0.0000    96.0000 </r>
       <r>   -15.1778     0.0000    96.0000 </r>
       <r>   -15.0873     0.0000    96.0000 </r>
       <r>   -14.9968     0.0000    96.0000 </r>
       <r>   -14.9063     0.0000    96.0000 </r>
       <r>   -14.8158     0.0000    96.0000 </r>
       <r>   -14.7253     0.0000    96.0000 </r>
       <r>   -14.6348     0.0000    96.0000 </r>
       <r>   -14.5443     0.0000    96.0000 </r>
       <r>   -14.4538     0.0000    96.0000 </r>
       <r>   -14.3633     0.0000    96.0000 </r>
       <r>   -14.2728     0.0000    96.0000 </r>
       <r>   -14.1823     0.0000    96.0000 </r>
       <r>   -14.0918    22.0995    98.0000 </r>
       <r>   -14.0013     0.0000    98.0000 </r>
       <r>   -13.9108     0.0000    98.0000 </r>
       <r>   -13.8203     0.0000    98.0000 </r>
       <r>   -13.7298     0.0000    98.0000 </r>
       <r>   -13.6393     0.0000    98.0000 </r>
       <r>   -13.5488     0.0000    98.0000 </r>
       <r>   -13.4583     0.0000    98.0000 </r>
       <r>   -13.3678     0.0000    98.0000 </r>
       <r>   -13.2773     0.0000    98.0000 </r>
       <r>   -13.1868     4.8160    98.4358 </r>
       <r>   -13.0964    61.3272   105.5501 </r>
       <r>   -13.0059    41.8999   109.8103 </r>
       <r>   -12.9154    66.2362   115.9944 </r>
       <r>   -12.8249     0.0470   116.0043 </r>
       <r>   -12.7344    44.1521   120.0000 </r>
       <r>   -12.6439     0.0000   120.0000 </r>
       <r>   -12.5534    22.0995   122.0000 </r>
       <r>   -12.4629    44.1817   125.9984 </r>
       <r>   -12.3724    17.7103   127.6028 </r>
       <r>   -12.2819    43.8315   131.9667 </r>
       <r>   -12.1914     0.2244   132.0203 </r>
       <r>   -12.1009    21.8752   134.0000 </r>
       <r>   -12.0104     0.0000   134.0000 </r>
       <r>   -11.9199     0.0879   134.0080 </r>
       <r>   -11.8294    44.1112   138.0000 </r>
       <r>   -11.7389    79.5509   145.1993 </r>
       <r>   -11.6484    42.7133   149.8655 </r>
       <r>   -11.5579    22.1149   152.0182 </r>
       <r>   -11.4674    21.8990   154.0000 </r>
       <r>   -11.3769    22.0995   156.0000 </r>
       <r>   -11.2864     0.0000   156.0000 </r>
       <r>   -11.1959    16.1806   157.4643 </r>
       <r>   -11.1054    22.0589   159.9963 </r>
       <r>   -11.0149    44.1834   164.0000 </r>
       <r>   -10.9244    22.9700   166.0788 </r>
       <r>   -10.8339    21.2290   168.0000 </r>
       <r>   -10.7434     0.0000   168.0000 </r>
       <r>   -10.6529    22.0994   170.0000 </r>
       <r>   -10.5624     0.0000   170.0000 </r>
       <r>   -10.4719     1.3201   170.1195 </r>
       <r>   -10.3814    42.8791   174.0000 </r>
       <r>   -10.2909    22.0994   176.0000 </r>
       <r>   -10.2004    40.3909   179.6554 </r>
       <r>   -10.1099     0.0000   180.0000 </r>
       <r>   -10.0194     0.0000   180.0000 </r>
       <r>    -9.9289     0.0000   180.0000 </r>
       <r>    -9.8384    22.0995   182.0000 </r>
       <r>    -9.7479    44.0644   185.9878 </r>
       <r>    -9.6574    44.0874   189.9907 </r>
       <r>    -9.5669    21.9955   191.9906 </r>
       <r>    -9.4764    44.6487   196.0409 </r>
       <r>    -9.3859    21.5989   198.0000 </r>
       <r>    -9.2954    47.5611   202.3043 </r>
       <r>    -9.2049   163.6895   218.8138 </r>
       <r>    -9.1144    55.5929   229.0311 </r>
       <r>    -9.0239    43.7424   235.9974 </r>
       <r>    -8.9334    22.0989   238.0000 </r>
       <r>    -8.8429    15.4013   239.3938 </r>
       <r>    -8.7524    22.0995   242.0000 </r>
       <r>    -8.6619     2.3556   242.2132 </r>
       <r>    -8.5714     0.0000   244.0000 </r>
       <r>    -8.4809    31.7328   246.8718 </r>
       <r>    -8.3904    22.0995   250.0000 </r>
       <r>    -8.2999    22.0987   251.9999 </r>
       <r>    -8.2094    27.1618   254.4581 </r>
       <r>    -8.1189    79.2035   263.2620 </r>
       <r>    -8.0284    20.1872   265.8269 </r>
       <r>    -7.9379    43.5238   269.9389 </r>
       <r>    -7.8474    40.7671   273.6894 </r>
       <r>    -7.7569    66.4415   282.0129 </r>
       <r>    -7.6664   114.1203   292.3408 </r>
       <r>    -7.5759    44.1984   298.0000 </r>
       <r>    -7.4854     0.0000   298.0000 </r>
       <r>    -7.3949    67.0539   304.0684 </r>
       <r>    -7.3044    43.4439   308.0000 </r>
       <r>    -7.2139    22.0994   310.0000 </r>
       <r>    -7.1234     0.0000   310.0000 </r>
       <r>    -7.0329     0.0000   310.0000 </r>
       <r>    -6.9424     0.0000   310.0000 </r>
       <r>    -6.8519     0.0172   310.0016 </r>
       <r>    -6.7614    31.1403   312.8197 </r>
       <r>    -6.6709     0.0000   314.0000 </r>
       <r>    -6.5804    44.1961   317.9997 </r>
       <r>    -6.4899    74.6306   324.7540 </r>
       <r>    -6.3994   126.6238   337.4594 </r>
       <r>    -6.3089    63.5348   343.7499 </r>
       <r>    -6.2184     0.0000   344.0000 </r>
       <r>    -6.1279     0.2164   344.0196 </r>
       <r>    -6.0374    21.8832   346.0000 </r>
       <r>    -5.9469    22.1013   348.0002 </r>
       <r>    -5.8564    82.9350   355.5072 </r>
       <r>    -5.7659    43.2067   359.9102 </r>
       <r>    -5.6754     0.0000   360.0000 </r>
       <r>    -5.5849     0.0000   360.0000 </r>
       <r>    -5.4944    22.0995   362.0000 </r>
       <r>    -5.4039     0.0000   362.0000 </r>
       <r>    -5.3134     0.0000   362.0000 </r>
       <r>    -5.2229     7.9226   362.7170 </r>
       <r>    -5.1324    74.2469   370.7206 </r>
       <r>    -5.0419    22.0990   374.0000 </r>
       <r>    -4.9514    25.4366   376.3020 </r>
       <r>    -4.8609    66.2986   384.0000 </r>
       <r>    -4.7704     0.0000   384.0000 </r>
       <r>    -4.6799    22.0995   386.0000 </r>
       <r>    -4.5894     0.0000   386.0000 </r>
       <r>    -4.4989     0.0000   386.0000 </r>
       <r>    -4.4084     0.0000   386.0000 </r>
       <r>    -4.3179     0.0000   386.0000 </r>
       <r>    -4.2274     0.0000   386.0000 </r>
       <r>    -4.1369     0.0000   386.0000 </r>
       <r>    -4.0464     0.0000   386.0000 </r>
       <r>    -3.9559     0.0000   386.0000 </r>
       <r>    -3.8654     0.0000   386.0000 </r>
       <r>    -3.7749     0.0000   386.0000 </r>
       <r>    -3.6844     0.0000   386.0000 </r>
       <r>    -3.5939     0.0000   386.0000 </r>
       <r>    -3.5034     0.0000   386.0000 </r>
       <r>    -3.4129     0.0000   386.0000 </r>
       <r>    -3.3224     0.0000   386.0000 </r>
       <r>    -3.2319     0.0000   386.0000 </r>
       <r>    -3.1414     0.0000   386.0000 </r>
       <r>    -3.0509     0.0000   386.0000 </r>
       <r>    -2.9604     0.0000   386.0000 </r>
       <r>    -2.8699     0.0000   386.0000 </r>
       <r>    -2.7794     0.0000   386.0000 </r>
       <r>    -2.6889     0.0000   386.0000 </r>
       <r>    -2.5984     0.0000   386.0000 </r>
       <r>    -2.5079     0.0000   386.0000 </r>
       <r>    -2.4174     0.0000   386.0000 </r>
       <r>    -2.3269     0.0000   386.0000 </r>
       <r>    -2.2364     0.0000   386.0000 </r>
       <r>    -2.1459     0.0000   386.0000 </r>
       <r>    -2.0554     0.0000   386.0000 </r>
       <r>    -1.9649     0.0000   386.0000 </r>
       <r>    -1.8744     0.0000   386.0000 </r>
       <r>    -1.7839     0.0000   386.0000 </r>
       <r>    -1.6934     0.0000   386.0000 </r>
       <r>    -1.6029     0.0000   386.0000 </r>
       <r>    -1.5124     0.0000   386.0000 </r>
       <r>    -1.4219     0.0000   386.0000 </r>
       <r>    -1.3314     0.5020   386.0454 </r>
       <r>    -1.2409    21.5976   388.0000 </r>
       <r>    -1.1504    22.0995   390.0000 </r>
       <r>    -1.0599     0.0000   390.0000 </r>
       <r>    -0.9694     0.0000   390.0000 </r>
       <r>    -0.8789     0.0000   390.0000 </r>
       <r>    -0.7884     0.0000   390.0000 </r>
       <r>    -0.6979     0.0000   390.0000 </r>
       <r>    -0.6074     0.0000   390.0000 </r>
       <r>    -0.5169     0.0000   390.0000 </r>
       <r>    -0.4264     0.0000   390.0000 </r>
       <r>    -0.3359     0.0000   390.0000 </r>
       <r>    -0.2454     0.0000   390.0000 </r>
       <r>    -0.1549     0.0000   390.0000 </r>
       <r>    -0.0644     0.0000   390.0000 </r>
       <r>     0.0261     0.0001   390.0000 </r>
       <r>     0.1166    22.0995   392.0000 </r>
       <r>     0.2071    13.5361   393.2250 </r>
       <r>     0.2976    73.1822   400.6230 </r>
       <r>     0.3881    23.4592   406.1230 </r>
       <r>     0.4786    32.4784   410.9393 </r>
       <r>     0.5691    22.0995   414.0000 </r>
       <r>     0.6596    22.0995   416.0000 </r>
       <r>     0.7501    27.7605   418.5123 </r>
       <r>     0.8406   100.7975   429.1222 </r>
       <r>     0.9311    44.0959   434.0000 </r>
       <r>     1.0216    36.0865   437.2658 </r>
       <r>     1.1121    25.8069   440.3355 </r>
       <r>     1.2026     0.0000   442.0000 </r>
       <r>     1.2931     0.0000   442.0000 </r>
       <r>     1.3836     0.0000   442.0000 </r>
       <r>     1.4741     0.0300   442.0027 </r>
       <r>     1.5646    22.0696   444.0000 </r>
       <r>     1.6551     0.1059   444.0096 </r>
       <r>     1.7456   118.9418   454.7738 </r>
       <r>     1.8361    46.3670   460.1962 </r>
       <r>     1.9266   141.7895   473.0281 </r>
       <r>     2.0171    22.8397   476.0670 </r>
       <r>     2.1076    41.9374   479.8623 </r>
       <r>     2.1981    66.2689   488.0000 </r>
       <r>     2.2886     0.0000   488.0000 </r>
       <r>     2.3791     0.0000   488.0000 </r>
       <r>     2.4696     0.0000   488.0000 </r>
       <r>     2.5601     0.0000   488.0000 </r>
       <r>     2.6506     0.0000   488.0000 </r>
       <r>     2.7411     0.0000   488.0000 </r>
       <r>     2.8316     0.0000   488.0000 </r>
       <r>     2.9221     0.0000   488.0000 </r>
       <r>     3.0126     0.0000   488.0000 </r>
       <r>     3.1031     0.0000   488.0000 </r>
       <r>     3.1936     0.0000   488.0000 </r>
       <r>     3.2841     0.0000   488.0000 </r>
       <r>     3.3746     0.0000   488.0000 </r>
      </set>
     </set>
    </array>
   </total>
  </dos>
 </calculation>
 <structure name="finalpos" >
  <crystal>
   <varray name="basis" >
    <v>      17.59966831       0.00000000       0.00000000 </v>
    <v>      -8.79983416      15.24175986       0.00000000 </v>
    <v>       0.00000000       0.00000000      19.92151445 </v>
   </varray>
   <i name="volume">   5343.94461817 </i>
   <varray name="rec_basis" >
    <v>       0.05681925       0.03280461       0.00000000 </v>
    <v>       0.00000000       0.06560922       0.00000000 </v>
    <v>       0.00000000       0.00000000       0.05019699 </v>
   </varray>
  </crystal>
  <varray name="positions" >
   <v>       0.99905391       0.00005992       0.49962381 </v>
   <v>       0.14164706       0.99871895       0.50000000 </v>
   <v>       0.28492260       0.99841663       0.50000000 </v>
   <v>       0.42850047       0.99871895       0.50000000 </v>
   <v>       0.57205839       0.00005992       0.50000000 </v>
   <v>       0.71530655       0.00214292       0.50000000 </v>
   <v>       0.85826494       0.00214292       0.50000000 </v>
   <v>       0.00080792       0.14408264       0.50000000 </v>
   <v>       0.14259355       0.14244783       0.50000000 </v>
   <v>       0.28470221       0.14112972       0.50000000 </v>
   <v>       0.42785608       0.14112972       0.50000000 </v>
   <v>       0.57128286       0.14244783       0.50000000 </v>
   <v>       0.71470329       0.14408264       0.50000000 </v>
   <v>       0.85805263       0.14467669       0.50000000 </v>
   <v>       0.00095476       0.28713011       0.50000000 </v>
   <v>       0.14372552       0.28645370       0.50000000 </v>
   <v>       0.28540977       0.28469374       0.50000000 </v>
   <v>       0.42724431       0.28306005       0.50000000 </v>
   <v>       0.57071254       0.28469374       0.50000000 </v>
   <v>       0.71415674       0.28645370       0.50000000 </v>
   <v>       0.85760392       0.28713011       0.50000000 </v>
   <v>       0.00054479       0.42966101       0.50000000 </v>
   <v>       0.14422690       0.42957551       0.50000000 </v>
   <v>       0.28730213       0.42918005       0.50000000 </v>
   <v>       0.42797654       0.42569726       0.50000000 </v>
   <v>       0.56914930       0.42569726       0.50000000 </v>
   <v>       0.71330650       0.42918005       0.50000000 </v>
   <v>       0.85677719       0.42957551       0.50000000 </v>
   <v>       0.99928255       0.57181462       0.50000000 </v>
   <v>       0.14396064       0.57181462       0.50000000 </v>
   <v>       0.28862787       0.57181625       0.50000000 </v>
   <v>       0.43313209       0.57215564       0.50000000 </v>
   <v>       0.71045212       0.57215564       0.50000000 </v>
   <v>       0.85461695       0.57181625       0.50000000 </v>
   <v>       0.99707234       0.71370518       0.50000000 </v>
   <v>       0.14255519       0.71368182       0.50000000 </v>
   <v>       0.28806142       0.71370518       0.50000000 </v>
   <v>       0.43464191       0.71382540       0.50000000 </v>
   <v>       0.58510826       0.71626937       0.50000000 </v>
   <v>       0.70258968       0.71626937       0.50000000 </v>
   <v>       0.85061206       0.71382540       0.50000000 </v>
   <v>       0.99777175       0.85613493       0.50000000 </v>
   <v>       0.14160898       0.85591288       0.50000000 </v>
   <v>       0.28573247       0.85591288       0.50000000 </v>
   <v>       0.42979175       0.85613493       0.50000000 </v>
   <v>       0.57342541       0.85758690       0.50000000 </v>
   <v>       0.71640633       0.86138410       0.50000000 </v>
   <v>       0.85559006       0.85758690       0.50000000 </v>
   <v>       0.04754270       0.09547788       0.50000000 </v>
   <v>       0.18957833       0.09405657       0.50000000 </v>
   <v>       0.33254182       0.09365506       0.50000000 </v>
   <v>       0.47590681       0.09405657       0.50000000 </v>
   <v>       0.61936376       0.09547788       0.50000000 </v>
   <v>       0.76280004       0.09719274       0.50000000 </v>
   <v>       0.90582126       0.09719274       0.50000000 </v>
   <v>       0.04854983       0.23934281       0.50000000 </v>
   <v>       0.19048138       0.23782962       0.50000000 </v>
   <v>       0.33234878       0.23634667       0.50000000 </v>
   <v>       0.47542646       0.23634667       0.50000000 </v>
   <v>       0.61877681       0.23782962       0.50000000 </v>
   <v>       0.76222155       0.23934281       0.50000000 </v>
   <v>       0.90562797       0.23982737       0.50000000 </v>
   <v>       0.04871288       0.38232824       0.50000000 </v>
   <v>       0.19188940       0.38184213       0.50000000 </v>
   <v>       0.33352206       0.38013969       0.50000000 </v>
   <v>       0.47472270       0.37801683       0.50000000 </v>
   <v>       0.61804620       0.38013969       0.50000000 </v>
   <v>       0.76138130       0.38184213       0.50000000 </v>
   <v>       0.90504393       0.38232824       0.50000000 </v>
   <v>       0.04810654       0.52478452       0.50000000 </v>
   <v>       0.19263929       0.52476864       0.50000000 </v>
   <v>       0.33696521       0.52455433       0.50000000 </v>
   <v>       0.47833704       0.52146721       0.50000000 </v>
   <v>       0.61455874       0.52146721       0.50000000 </v>
   <v>       0.75901769       0.52455433       0.50000000 </v>
   <v>       0.90355792       0.52476864       0.50000000 </v>
   <v>       0.04642473       0.66685228       0.50000000 </v>
   <v>       0.19185612       0.66685228       0.50000000 </v>
   <v>       0.33777931       0.66688794       0.50000000 </v>
   <v>       0.48615700       0.66710760       0.50000000 </v>
   <v>       0.75237918       0.66710760       0.50000000 </v>
   <v>       0.90053720       0.66688794       0.50000000 </v>
   <v>       0.04582562       0.80879365       0.50000000 </v>
   <v>       0.19009580       0.80876303       0.50000000 </v>
   <v>       0.33439660       0.80879365       0.50000000 </v>
   <v>       0.47844872       0.80897069       0.50000000 </v>
   <v>       0.62209487       0.81129474       0.50000000 </v>
   <v>       0.76062845       0.81129474       0.50000000 </v>
   <v>       0.90195054       0.80897069       0.50000000 </v>
   <v>       0.04629157       0.95154386       0.50000000 </v>
   <v>       0.18948291       0.95113037       0.50000000 </v>
   <v>       0.33307603       0.95113037       0.50000000 </v>
   <v>       0.47668087       0.95154386       0.50000000 </v>
   <v>       0.62015751       0.95313740       0.50000000 </v>
   <v>       0.76355772       0.95568687       0.50000000 </v>
   <v>       0.90440847       0.95313740       0.50000000 </v>
   <v>       0.56830873       0.56518888       0.50000000 </v>
  </varray>
 </structure>
</modeling>
