<?xml version="1.0" encoding="ISO-8859-1"?>
<modeling>
 <generator>
  <i name="program" type="string">vasp </i>
  <i name="version" type="string">5.4.4.18Apr17-6-g9f103f2a35  </i>
  <i name="subversion" type="string">(build Oct 18 2020 22:16:12) gamma-only         parallel </i>
  <i name="platform" type="string">UA-vaughan-2020a </i>
  <i name="date" type="string">2023 03 22 </i>
  <i name="time" type="string">01:31:07 </i>
 </generator>
 <incar>
  <i type="string" name="PREC">accurate</i>
  <i type="int" name="IALGO">    38</i>
  <i type="logical" name="ADDGRID"> T  </i>
  <i type="int" name="NELMIN">     5</i>
  <i type="int" name="IBRION">    -1</i>
  <i name="EDIFF">      0.00000001</i>
  <i name="EDIFFG">     -0.00000001</i>
  <i type="int" name="NSW">     0</i>
  <i type="int" name="ISIF">     2</i>
  <i name="ENCUT">    500.00000000</i>
  <i type="logical" name="LREAL"> F  </i>
  <i type="int" name="ISMEAR">     0</i>
  <i name="SIGMA">      0.01000000</i>
  <i type="logical" name="LWAVE"> F  </i>
  <i type="logical" name="LCHARG"> F  </i>
  <v type="int" name="KPOINT_BSE">    -1     0     0     0</v>
 </incar>
 <structure name="primitive_cell" >
  <crystal>
   <varray name="basis" >
    <v>      17.59966831       0.00000000       0.00000000 </v>
    <v>      -8.79983416      15.24175986       0.00000000 </v>
    <v>       0.00000000       0.00000000      19.92151445 </v>
   </varray>
   <i name="volume">   5343.94461817 </i>
   <varray name="rec_basis" >
    <v>       0.05681925       0.03280461       0.00000000 </v>
    <v>       0.00000000       0.06560922       0.00000000 </v>
    <v>       0.00000000       0.00000000       0.05019699 </v>
   </varray>
  </crystal>
  <varray name="positions" >
   <v>      -0.00056990       0.00005992      -0.50000000 </v>
   <v>      -0.09559153      -0.04686260      -0.50000000 </v>
   <v>       0.04629157      -0.04845614      -0.50000000 </v>
   <v>       0.04754270       0.09547788      -0.50000000 </v>
   <v>      -0.14173506       0.00214292      -0.50000000 </v>
   <v>       0.14259355       0.14244783      -0.50000000 </v>
   <v>       0.14164706      -0.00128105      -0.50000000 </v>
   <v>      -0.00222825      -0.14386507      -0.50000000 </v>
   <v>      -0.14440994      -0.14241310      -0.50000000 </v>
   <v>       0.00080792       0.14408264      -0.50000000 </v>
   <v>       0.18957833       0.09405657      -0.50000000 </v>
   <v>      -0.09417874       0.09719274      -0.50000000 </v>
   <v>      -0.09804946      -0.19102931      -0.50000000 </v>
   <v>      -0.23644228      -0.04431313      -0.50000000 </v>
   <v>      -0.23937155      -0.18870526      -0.50000000 </v>
   <v>       0.19048138       0.23782962      -0.50000000 </v>
   <v>       0.04582562      -0.19120635      -0.50000000 </v>
   <v>       0.18948291      -0.04830144      -0.50000000 </v>
   <v>       0.04854983       0.23934281      -0.50000000 </v>
   <v>      -0.28359367      -0.13861590      -0.50000000 </v>
   <v>       0.28470221       0.14112972      -0.50000000 </v>
   <v>      -0.14194737       0.14467669      -0.50000000 </v>
   <v>      -0.14938794      -0.28617460      -0.50000000 </v>
   <v>       0.14160898      -0.14408712      -0.50000000 </v>
   <v>       0.14372552       0.28645370      -0.50000000 </v>
   <v>      -0.28469345       0.00214292      -0.50000000 </v>
   <v>      -0.00292766      -0.28629482      -0.50000000 </v>
   <v>       0.28540977       0.28469374      -0.50000000 </v>
   <v>       0.00095476       0.28713011      -0.50000000 </v>
   <v>       0.28492260      -0.00158337      -0.50000000 </v>
   <v>      -0.29741032      -0.28373063      -0.50000000 </v>
   <v>      -0.09946280      -0.33311206      -0.50000000 </v>
   <v>       0.33234878       0.23634667      -0.50000000 </v>
   <v>      -0.23719996       0.09719274      -0.50000000 </v>
   <v>       0.33254182       0.09365506      -0.50000000 </v>
   <v>      -0.09437203       0.23982737      -0.50000000 </v>
   <v>      -0.24762082      -0.33289240      -0.50000000 </v>
   <v>      -0.37790513      -0.18870526      -0.50000000 </v>
   <v>       0.19188940       0.38184213      -0.50000000 </v>
   <v>       0.19009580      -0.19123697      -0.50000000 </v>
   <v>      -0.37984249      -0.04686260      -0.50000000 </v>
   <v>       0.04642473      -0.33314772      -0.50000000 </v>
   <v>       0.33352206       0.38013969      -0.50000000 </v>
   <v>       0.04871288       0.38232824      -0.50000000 </v>
   <v>       0.33307603      -0.04886963      -0.50000000 </v>
   <v>      -0.41489174      -0.28373063      -0.50000000 </v>
   <v>      -0.42657459      -0.14241310      -0.50000000 </v>
   <v>       0.42724431       0.28306005      -0.50000000 </v>
   <v>      -0.14538305      -0.42818375      -0.50000000 </v>
   <v>      -0.28529671       0.14408264      -0.50000000 </v>
   <v>      -0.28954788      -0.42784436      -0.50000000 </v>
   <v>       0.42785608       0.14112972      -0.50000000 </v>
   <v>      -0.14239608       0.28713011      -0.50000000 </v>
   <v>       0.14422690       0.42957551      -0.50000000 </v>
   <v>       0.28730213       0.42918005      -0.50000000 </v>
   <v>       0.14255519      -0.28631818      -0.50000000 </v>
   <v>       0.28573247      -0.14408712      -0.50000000 </v>
   <v>      -0.24098231      -0.47544567      -0.50000000 </v>
   <v>       0.47542646       0.23634667      -0.50000000 </v>
   <v>      -0.23777845       0.23934281      -0.50000000 </v>
   <v>       0.42797654       0.42569726      -0.50000000 </v>
   <v>      -0.42794161       0.00005992      -0.50000000 </v>
   <v>      -0.00071745      -0.42818538      -0.50000000 </v>
   <v>       0.00054479       0.42966101      -0.50000000 </v>
   <v>       0.42850047      -0.00128105      -0.50000000 </v>
   <v>      -0.43169127      -0.43481112      -0.50000000 </v>
   <v>       0.47472270       0.37801683      -0.50000000 </v>
   <v>      -0.09644208      -0.47523136      -0.50000000 </v>
   <v>      -0.38063624       0.09547788      -0.50000000 </v>
   <v>       0.47590681       0.09405657      -0.50000000 </v>
   <v>      -0.09495607       0.38232824      -0.50000000 </v>
   <v>      -0.38544126      -0.47853279      -0.50000000 </v>
   <v>       0.48615700      -0.33289240      -0.50000000 </v>
   <v>       0.47844872      -0.19102931      -0.50000000 </v>
   <v>       0.19263929      -0.47523136      -0.50000000 </v>
   <v>       0.33696521      -0.47544567      -0.50000000 </v>
   <v>       0.19185612      -0.33314772      -0.50000000 </v>
   <v>       0.33439660      -0.19120635      -0.50000000 </v>
   <v>       0.43464191      -0.28617460      -0.50000000 </v>
   <v>      -0.28669350       0.42918005      -0.50000000 </v>
   <v>      -0.42928746       0.28469374      -0.50000000 </v>
   <v>      -0.28584326       0.28645370      -0.50000000 </v>
   <v>       0.28862787      -0.42818375      -0.50000000 </v>
   <v>       0.28806142      -0.28629482      -0.50000000 </v>
   <v>       0.47668087      -0.04845614      -0.50000000 </v>
   <v>       0.47833704      -0.47853279      -0.50000000 </v>
   <v>       0.04810654      -0.47521548      -0.50000000 </v>
   <v>       0.43313209      -0.42784436      -0.50000000 </v>
   <v>       0.42979175      -0.14386507      -0.50000000 </v>
   <v>      -0.43085070       0.42569726      -0.50000000 </v>
   <v>      -0.14322281       0.42957551      -0.50000000 </v>
   <v>      -0.42871714       0.14244783      -0.50000000 </v>
   <v>       0.14396064      -0.42818538      -0.50000000 </v>
   <v>      -0.23861870       0.38184213      -0.50000000 </v>
   <v>      -0.38122319       0.23782962      -0.50000000 </v>
   <v>      -0.38195380       0.38013969      -0.50000000 </v>
   <v>       0.33777931      -0.33311206      -0.50000000 </v>
  </varray>
 </structure>
 <varray name="primitive_index" >
  <v type="int" >        1 </v>
  <v type="int" >       96 </v>
  <v type="int" >       90 </v>
  <v type="int" >       49 </v>
  <v type="int" >        7 </v>
  <v type="int" >        9 </v>
  <v type="int" >        2 </v>
  <v type="int" >       42 </v>
  <v type="int" >       48 </v>
  <v type="int" >        8 </v>
  <v type="int" >       50 </v>
  <v type="int" >       55 </v>
  <v type="int" >       89 </v>
  <v type="int" >       95 </v>
  <v type="int" >       88 </v>
  <v type="int" >       57 </v>
  <v type="int" >       83 </v>
  <v type="int" >       91 </v>
  <v type="int" >       56 </v>
  <v type="int" >       47 </v>
  <v type="int" >       10 </v>
  <v type="int" >       14 </v>
  <v type="int" >       41 </v>
  <v type="int" >       43 </v>
  <v type="int" >       16 </v>
  <v type="int" >        6 </v>
  <v type="int" >       35 </v>
  <v type="int" >       17 </v>
  <v type="int" >       15 </v>
  <v type="int" >        3 </v>
  <v type="int" >       40 </v>
  <v type="int" >       82 </v>
  <v type="int" >       58 </v>
  <v type="int" >       54 </v>
  <v type="int" >       51 </v>
  <v type="int" >       62 </v>
  <v type="int" >       81 </v>
  <v type="int" >       87 </v>
  <v type="int" >       64 </v>
  <v type="int" >       84 </v>
  <v type="int" >       94 </v>
  <v type="int" >       77 </v>
  <v type="int" >       65 </v>
  <v type="int" >       63 </v>
  <v type="int" >       92 </v>
  <v type="int" >       39 </v>
  <v type="int" >       46 </v>
  <v type="int" >       18 </v>
  <v type="int" >       34 </v>
  <v type="int" >       13 </v>
  <v type="int" >       33 </v>
  <v type="int" >       11 </v>
  <v type="int" >       21 </v>
  <v type="int" >       23 </v>
  <v type="int" >       24 </v>
  <v type="int" >       36 </v>
  <v type="int" >       44 </v>
  <v type="int" >       75 </v>
  <v type="int" >       59 </v>
  <v type="int" >       61 </v>
  <v type="int" >       25 </v>
  <v type="int" >        5 </v>
  <v type="int" >       29 </v>
  <v type="int" >       22 </v>
  <v type="int" >        4 </v>
  <v type="int" >       97 </v>
  <v type="int" >       66 </v>
  <v type="int" >       76 </v>
  <v type="int" >       53 </v>
  <v type="int" >       52 </v>
  <v type="int" >       69 </v>
  <v type="int" >       74 </v>
  <v type="int" >       80 </v>
  <v type="int" >       86 </v>
  <v type="int" >       71 </v>
  <v type="int" >       72 </v>
  <v type="int" >       78 </v>
  <v type="int" >       85 </v>
  <v type="int" >       38 </v>
  <v type="int" >       27 </v>
  <v type="int" >       19 </v>
  <v type="int" >       20 </v>
  <v type="int" >       31 </v>
  <v type="int" >       37 </v>
  <v type="int" >       93 </v>
  <v type="int" >       73 </v>
  <v type="int" >       70 </v>
  <v type="int" >       32 </v>
  <v type="int" >       45 </v>
  <v type="int" >       26 </v>
  <v type="int" >       28 </v>
  <v type="int" >       12 </v>
  <v type="int" >       30 </v>
  <v type="int" >       68 </v>
  <v type="int" >       60 </v>
  <v type="int" >       67 </v>
  <v type="int" >       79 </v>
 </varray>
 <kpoints>
  <generation param="Gamma">
   <v type="int" name="divisions">       1        1        1 </v>
   <v name="usershift">      0.00000000       0.00000000       0.00000000 </v>
   <v name="genvec1">      1.00000000      -0.00000000       0.00000000 </v>
   <v name="genvec2">      0.00000000       1.00000000       0.00000000 </v>
   <v name="genvec3">      0.00000000       0.00000000       1.00000000 </v>
   <v name="shift">      0.00000000       0.00000000       0.00000000 </v>
  </generation>
  <varray name="kpointlist" >
   <v>       0.00000000       0.00000000       0.00000000 </v>
  </varray>
  <varray name="weights" >
   <v>       1.00000000 </v>
  </varray>
 </kpoints>
 <parameters>
  <separator name="general" >
   <i type="string" name="SYSTEM">unknown system</i>
   <i type="logical" name="LCOMPAT"> F  </i>
  </separator>
  <separator name="electronic" >
   <i type="string" name="PREC">accura</i>
   <i name="ENMAX">    500.00000000</i>
   <i name="ENAUG">    644.87300000</i>
   <i name="EDIFF">      0.00000001</i>
   <i type="int" name="IALGO">    38</i>
   <i type="int" name="IWAVPR">    10</i>
   <i type="int" name="NBANDS">   244</i>
   <i name="NELECT">    388.00000000</i>
   <i type="int" name="TURBO">     0</i>
   <i type="int" name="IRESTART">     0</i>
   <i type="int" name="NREBOOT">     0</i>
   <i type="int" name="NMIN">     0</i>
   <i name="EREF">      0.00000000</i>
   <separator name="electronic smearing" >
    <i type="int" name="ISMEAR">     0</i>
    <i name="SIGMA">      0.01000000</i>
    <i name="KSPACING">      0.50000000</i>
    <i type="logical" name="KGAMMA"> T  </i>
   </separator>
   <separator name="electronic projectors" >
    <i type="logical" name="LREAL"> F  </i>
    <v name="ROPT">      0.00000000      0.00000000      0.00000000</v>
    <i type="int" name="LMAXPAW">  -100</i>
    <i type="int" name="LMAXMIX">     2</i>
    <i type="logical" name="NLSPLINE"> F  </i>
   </separator>
   <separator name="electronic startup" >
    <i type="int" name="ISTART">     0</i>
    <i type="int" name="ICHARG">     2</i>
    <i type="int" name="INIWAV">     1</i>
   </separator>
   <separator name="electronic spin" >
    <i type="int" name="ISPIN">     1</i>
    <i type="logical" name="LNONCOLLINEAR"> F  </i>
    <v name="MAGMOM">      1.00000000      1.00000000      1.00000000      1.00000000      1.00000000      1.00000000      1.00000000      1.00000000      1.00000000      1.00000000      1.00000000      1.00000000      1.00000000      1.00000000      1.00000000      1.00000000      1.00000000      1.00000000      1.00000000      1.00000000
      1.00000000      1.00000000      1.00000000      1.00000000      1.00000000      1.00000000      1.00000000      1.00000000      1.00000000      1.00000000      1.00000000      1.00000000      1.00000000      1.00000000      1.00000000      1.00000000      1.00000000      1.00000000      1.00000000      1.00000000
      1.00000000      1.00000000      1.00000000      1.00000000      1.00000000      1.00000000      1.00000000      1.00000000      1.00000000      1.00000000      1.00000000      1.00000000      1.00000000      1.00000000      1.00000000      1.00000000      1.00000000      1.00000000      1.00000000      1.00000000
      1.00000000      1.00000000      1.00000000      1.00000000      1.00000000      1.00000000      1.00000000      1.00000000      1.00000000      1.00000000      1.00000000      1.00000000      1.00000000      1.00000000      1.00000000      1.00000000      1.00000000      1.00000000      1.00000000      1.00000000
      1.00000000      1.00000000      1.00000000      1.00000000      1.00000000      1.00000000      1.00000000      1.00000000      1.00000000      1.00000000      1.00000000      1.00000000      1.00000000      1.00000000      1.00000000      1.00000000      1.00000000</v>
    <i name="NUPDOWN">     -1.00000000</i>
    <i type="logical" name="LSORBIT"> F  </i>
    <v name="SAXIS">      0.00000000      0.00000000      1.00000000</v>
    <i type="logical" name="LSPIRAL"> F  </i>
    <v name="QSPIRAL">      0.00000000      0.00000000      0.00000000</v>
    <i type="logical" name="LZEROZ"> F  </i>
   </separator>
   <separator name="electronic exchange-correlation" >
    <i type="logical" name="LASPH"> F  </i>
    <i type="logical" name="LMETAGGA"> F  </i>
   </separator>
   <separator name="electronic convergence" >
    <i type="int" name="NELM">    60</i>
    <i type="int" name="NELMDL">    -5</i>
    <i type="int" name="NELMIN">     5</i>
    <i name="ENINI">    500.00000000</i>
    <separator name="electronic convergence detail" >
     <i type="logical" name="LDIAG"> T  </i>
     <i type="logical" name="LSUBROT"> F  </i>
     <i name="WEIMIN">      0.00000000</i>
     <i name="EBREAK">      0.00000000</i>
     <i name="DEPER">      0.30000000</i>
     <i type="int" name="NRMM">     4</i>
     <i name="TIME">      0.40000000</i>
    </separator>
   </separator>
   <separator name="electronic mixer" >
    <i name="AMIX">      0.40000000</i>
    <i name="BMIX">      1.00000000</i>
    <i name="AMIN">      0.10000000</i>
    <i name="AMIX_MAG">      1.60000000</i>
    <i name="BMIX_MAG">      1.00000000</i>
    <separator name="electronic mixer details" >
     <i type="int" name="IMIX">     4</i>
     <i type="logical" name="MIXFIRST"> F  </i>
     <i type="int" name="MAXMIX">   -45</i>
     <i name="WC">    100.00000000</i>
     <i type="int" name="INIMIX">     1</i>
     <i type="int" name="MIXPRE">     1</i>
     <i type="int" name="MREMOVE">     5</i>
    </separator>
   </separator>
   <separator name="electronic dipolcorrection" >
    <i type="logical" name="LDIPOL"> F  </i>
    <i type="logical" name="LMONO"> F  </i>
    <i type="int" name="IDIPOL">     0</i>
    <i name="EPSILON">      1.00000000</i>
    <v name="DIPOL">   -100.00000000   -100.00000000   -100.00000000</v>
    <i name="EFIELD">      0.00000000</i>
   </separator>
  </separator>
  <separator name="grids" >
   <i type="int" name="NGX">   128</i>
   <i type="int" name="NGY">   128</i>
   <i type="int" name="NGZ">   150</i>
   <i type="int" name="NGXF">   256</i>
   <i type="int" name="NGYF">   256</i>
   <i type="int" name="NGZF">   300</i>
   <i type="logical" name="ADDGRID"> T  </i>
  </separator>
  <separator name="ionic" >
   <i type="int" name="NSW">     0</i>
   <i type="int" name="IBRION">    -1</i>
   <i type="int" name="MDALGO">     0</i>
   <i type="int" name="ISIF">     2</i>
   <i name="PSTRESS">      0.00000000</i>
   <i name="EDIFFG">     -0.00000001</i>
   <i type="int" name="NFREE">     0</i>
   <i name="POTIM">      0.50000000</i>
   <i name="SMASS">     -3.00000000</i>
   <i name="SCALEE">      1.00000000</i>
  </separator>
  <separator name="ionic md" >
   <i name="TEBEG">      0.00010000</i>
   <i name="TEEND">      0.00010000</i>
   <i type="int" name="NBLOCK">     1</i>
   <i type="int" name="KBLOCK">     1</i>
   <i type="int" name="NPACO">   256</i>
   <i name="APACO">     16.00000000</i>
  </separator>
  <separator name="symmetry" >
   <i type="int" name="ISYM">     2</i>
   <i name="SYMPREC">      0.00001000</i>
  </separator>
  <separator name="dos" >
   <i type="int" name="LORBIT">     0</i>
   <v name="RWIGS">     -1.00000000     -1.00000000     -1.00000000</v>
   <i type="int" name="NEDOS">   301</i>
   <i name="EMIN">     10.00000000</i>
   <i name="EMAX">    -10.00000000</i>
   <i name="EFERMI">      0.00000000</i>
  </separator>
  <separator name="writing" >
   <i type="int" name="NWRITE">     2</i>
   <i type="logical" name="LWAVE"> F  </i>
   <i type="logical" name="LDOWNSAMPLE"> F  </i>
   <i type="logical" name="LCHARG"> F  </i>
   <i type="logical" name="LPARD"> F  </i>
   <i type="logical" name="LVTOT"> F  </i>
   <i type="logical" name="LVHAR"> F  </i>
   <i type="logical" name="LELF"> F  </i>
   <i type="logical" name="LOPTICS"> F  </i>
   <v name="STM">      0.00000000      0.00000000      0.00000000      0.00000000      0.00000000      0.00000000      0.00000000</v>
  </separator>
  <separator name="performance" >
   <i type="int" name="NPAR">     4</i>
   <i type="int" name="NSIM">     4</i>
   <i type="int" name="NBLK">    -1</i>
   <i type="logical" name="LPLANE"> T  </i>
   <i type="logical" name="LSCALAPACK"> T  </i>
   <i type="logical" name="LSCAAWARE"> F  </i>
   <i type="logical" name="LSCALU"> F  </i>
   <i type="logical" name="LASYNC"> F  </i>
   <i type="logical" name="LORBITALREAL"> F  </i>
  </separator>
  <separator name="miscellaneous" >
   <i type="int" name="IDIOT">     3</i>
   <i type="int" name="ISPECIAL">     0</i>
   <i type="logical" name="LMUSIC"> F  </i>
   <v name="POMASS">     10.81100000     14.00100000     12.01100000</v>
   <v name="DARWINR">      0.00000000      0.00000000      0.00000000</v>
   <v name="DARWINV">      1.00000000      1.00000000      1.00000000</v>
   <i type="logical" name="LCORR"> T  </i>
  </separator>
  <i type="logical" name="GGA_COMPAT"> T  </i>
  <i type="logical" name="LBERRY"> F  </i>
  <i type="int" name="ICORELEVEL">     0</i>
  <i type="logical" name="LDAU"> F  </i>
  <i type="int" name="I_CONSTRAINED_M">     0</i>
  <separator name="electronic exchange-correlation" >
   <i type="string" name="GGA">--</i>
   <i type="int" name="VOSKOWN">     0</i>
   <i type="logical" name="LHFCALC"> F  </i>
   <i type="string" name="PRECFOCK"></i>
   <i type="logical" name="LSYMGRAD"> F  </i>
   <i type="logical" name="LHFONE"> F  </i>
   <i type="logical" name="LRHFCALC"> F  </i>
   <i type="logical" name="LTHOMAS"> F  </i>
   <i type="logical" name="LMODELHF"> F  </i>
   <i name="ENCUT4O">     -1.00000000</i>
   <i type="int" name="EXXOEP">     0</i>
   <i type="int" name="FOURORBIT">     0</i>
   <i name="AEXX">      0.00000000</i>
   <i name="HFALPHA">      0.00000000</i>
   <i name="MCALPHA">      0.00000000</i>
   <i name="ALDAX">      1.00000000</i>
   <i name="AGGAX">      1.00000000</i>
   <i name="ALDAC">      1.00000000</i>
   <i name="AGGAC">      1.00000000</i>
   <i type="int" name="NKREDX">     1</i>
   <i type="int" name="NKREDY">     1</i>
   <i type="int" name="NKREDZ">     1</i>
   <i type="logical" name="SHIFTRED"> F  </i>
   <i type="logical" name="ODDONLY"> F  </i>
   <i type="logical" name="EVENONLY"> F  </i>
   <i type="int" name="LMAXFOCK">     0</i>
   <i type="int" name="NMAXFOCKAE">     0</i>
   <i type="logical" name="LFOCKAEDFT"> F  </i>
   <i name="HFSCREEN">      0.00000000</i>
   <i name="HFSCREENC">      0.00000000</i>
   <i type="int" name="NBANDSGWLOW">     0</i>
  </separator>
  <separator name="vdW DFT" >
   <i type="logical" name="LUSE_VDW"> F  </i>
   <i name="Zab_VDW">     -0.84910000</i>
   <i name="PARAM1">      0.12340000</i>
   <i name="PARAM2">      1.00000000</i>
   <i name="PARAM3">      0.00000000</i>
  </separator>
  <separator name="model GW" >
   <i type="int" name="MODEL_GW">     0</i>
   <i name="MODEL_EPS0">     33.05532754</i>
   <i name="MODEL_ALPHA">      1.00000000</i>
  </separator>
  <separator name="linear response parameters" >
   <i type="logical" name="LEPSILON"> F  </i>
   <i type="logical" name="LRPA"> F  </i>
   <i type="logical" name="LNABLA"> F  </i>
   <i type="logical" name="LVEL"> F  </i>
   <i type="int" name="KINTER">     0</i>
   <i name="CSHIFT">      0.10000000</i>
   <i name="OMEGAMAX">     -1.00000000</i>
   <i name="DEG_THRESHOLD">      0.00200000</i>
   <i name="RTIME">     -0.10000000</i>
   <i name="WPLASMAI">      0.00000000</i>
   <v name="DFIELD">      0.00000000      0.00000000      0.00000000</v>
   <v name="WPLASMA">      0.00000000      0.00000000      0.00000000      0.00000000      0.00000000      0.00000000      0.00000000      0.00000000      0.00000000</v>
  </separator>
  <separator name="orbital magnetization" >
   <i type="logical" name="NUCIND"> F  </i>
   <v name="MAGPOS">      0.00000000      0.00000000      0.00000000</v>
   <i type="logical" name="LNICSALL"> T  </i>
   <i type="logical" name="ORBITALMAG"> F  </i>
   <i type="logical" name="LMAGBLOCH"> F  </i>
   <i type="logical" name="LCHIMAG"> F  </i>
   <i type="logical" name="LGAUGE"> T  </i>
   <i type="int" name="MAGATOM">     0</i>
   <v name="MAGDIPOL">      0.00000000      0.00000000      0.00000000</v>
   <v name="AVECCONST">      0.00000000      0.00000000      0.00000000</v>
  </separator>
  <separator name="response functions" >
   <i type="logical" name="LADDER"> F  </i>
   <i type="logical" name="LRPAFORCE"> F  </i>
   <i type="logical" name="LFXC"> F  </i>
   <i type="logical" name="LHARTREE"> T  </i>
   <i type="int" name="IBSE">     0</i>
   <v type="int" name="KPOINT">    -1     0     0     0</v>
   <i type="logical" name="LTCTE"> F  </i>
   <i type="logical" name="LTETE"> F  </i>
   <i type="logical" name="LTRIPLET"> F  </i>
   <i type="logical" name="LFXCEPS"> F  </i>
   <i type="logical" name="LFXHEG"> F  </i>
   <i type="int" name="NATURALO">     2</i>
   <i type="logical" name="L2ORDER"> F  </i>
   <i type="logical" name="LMP2LT"> F  </i>
   <i type="logical" name="LUSEW"> F  </i>
   <i name="ENCUTGW">     -2.00000000</i>
   <i name="ENCUTGWSOFT">     -2.00000000</i>
   <i name="ENCUTLF">     -1.00000000</i>
   <i type="int" name="LMAXMP2">    -1</i>
   <i name="SCISSOR">      0.00000000</i>
   <i type="int" name="NOMEGA">     0</i>
   <i type="int" name="NOMEGAR">     0</i>
   <i type="int" name="NBANDSGW">    -1</i>
   <i type="int" name="NBANDSO">    -1</i>
   <i type="int" name="NBANDSV">    -1</i>
   <i type="int" name="NELM">     1</i>
   <i type="int" name="NELMHF">     1</i>
   <i type="int" name="DIM">     3</i>
   <i type="int" name="ANTIRES">     0</i>
   <i name="OMEGAMAX">    -30.00000000</i>
   <i name="OMEGAMIN">    -30.00000000</i>
   <i name="OMEGATL">   -200.00000000</i>
   <i type="int" name="OMEGAGRID">   140</i>
   <i name="CSHIFT">     -0.10000000</i>
   <i type="logical" name="SELFENERGY"> F  </i>
   <i type="logical" name="LSPECTRAL"> F  </i>
   <i type="logical" name="LSPECTRALGW"> F  </i>
   <i type="logical" name="LSINGLES"> F  </i>
   <i type="logical" name="LFERMIGW"> F  </i>
   <i type="logical" name="ODDONLYGW"> F  </i>
   <i type="logical" name="EVENONLYGW"> F  </i>
   <i type="int" name="NKREDLFX">     1</i>
   <i type="int" name="NKREDLFY">     1</i>
   <i type="int" name="NKREDLFZ">     1</i>
   <i type="int" name="MAXMEM">  2800</i>
   <i type="int" name="TELESCOPE">     0</i>
   <i type="int" name="TAUPAR">     1</i>
   <i type="int" name="OMEGAPAR">    -1</i>
   <i name="LAMBDA">      1.00000000</i>
  </separator>
  <separator name="External order field" >
   <i name="OFIELD_KAPPA">      0.00000000</i>
   <v name="OFIELD_K">      0.00000000      0.00000000      0.00000000</v>
   <i name="OFIELD_Q6_NEAR">      0.00000000</i>
   <i name="OFIELD_Q6_FAR">      0.00000000</i>
   <i name="OFIELD_A">      0.00000000</i>
  </separator>
 </parameters>
 <atominfo>
  <atoms>      97 </atoms>
  <types>       3 </types>
  <array name="atoms" >
   <dimension dim="1">ion</dimension>
   <field type="string">element</field>
   <field type="int">atomtype</field>
   <set>
    <rc><c>B </c><c>   1</c></rc>
    <rc><c>B </c><c>   1</c></rc>
    <rc><c>B </c><c>   1</c></rc>
    <rc><c>B </c><c>   1</c></rc>
    <rc><c>B </c><c>   1</c></rc>
    <rc><c>B </c><c>   1</c></rc>
    <rc><c>B </c><c>   1</c></rc>
    <rc><c>B </c><c>   1</c></rc>
    <rc><c>B </c><c>   1</c></rc>
    <rc><c>B </c><c>   1</c></rc>
    <rc><c>B </c><c>   1</c></rc>
    <rc><c>B </c><c>   1</c></rc>
    <rc><c>B </c><c>   1</c></rc>
    <rc><c>B </c><c>   1</c></rc>
    <rc><c>B </c><c>   1</c></rc>
    <rc><c>B </c><c>   1</c></rc>
    <rc><c>B </c><c>   1</c></rc>
    <rc><c>B </c><c>   1</c></rc>
    <rc><c>B </c><c>   1</c></rc>
    <rc><c>B </c><c>   1</c></rc>
    <rc><c>B </c><c>   1</c></rc>
    <rc><c>B </c><c>   1</c></rc>
    <rc><c>B </c><c>   1</c></rc>
    <rc><c>B </c><c>   1</c></rc>
    <rc><c>B </c><c>   1</c></rc>
    <rc><c>B </c><c>   1</c></rc>
    <rc><c>B </c><c>   1</c></rc>
    <rc><c>B </c><c>   1</c></rc>
    <rc><c>B </c><c>   1</c></rc>
    <rc><c>B </c><c>   1</c></rc>
    <rc><c>B </c><c>   1</c></rc>
    <rc><c>B </c><c>   1</c></rc>
    <rc><c>B </c><c>   1</c></rc>
    <rc><c>B </c><c>   1</c></rc>
    <rc><c>B </c><c>   1</c></rc>
    <rc><c>B </c><c>   1</c></rc>
    <rc><c>B </c><c>   1</c></rc>
    <rc><c>B </c><c>   1</c></rc>
    <rc><c>B </c><c>   1</c></rc>
    <rc><c>B </c><c>   1</c></rc>
    <rc><c>B </c><c>   1</c></rc>
    <rc><c>B </c><c>   1</c></rc>
    <rc><c>B </c><c>   1</c></rc>
    <rc><c>B </c><c>   1</c></rc>
    <rc><c>B </c><c>   1</c></rc>
    <rc><c>B </c><c>   1</c></rc>
    <rc><c>B </c><c>   1</c></rc>
    <rc><c>B </c><c>   1</c></rc>
    <rc><c>N </c><c>   2</c></rc>
    <rc><c>N </c><c>   2</c></rc>
    <rc><c>N </c><c>   2</c></rc>
    <rc><c>N </c><c>   2</c></rc>
    <rc><c>N </c><c>   2</c></rc>
    <rc><c>N </c><c>   2</c></rc>
    <rc><c>N </c><c>   2</c></rc>
    <rc><c>N </c><c>   2</c></rc>
    <rc><c>N </c><c>   2</c></rc>
    <rc><c>N </c><c>   2</c></rc>
    <rc><c>N </c><c>   2</c></rc>
    <rc><c>N </c><c>   2</c></rc>
    <rc><c>N </c><c>   2</c></rc>
    <rc><c>N </c><c>   2</c></rc>
    <rc><c>N </c><c>   2</c></rc>
    <rc><c>N </c><c>   2</c></rc>
    <rc><c>N </c><c>   2</c></rc>
    <rc><c>N </c><c>   2</c></rc>
    <rc><c>N </c><c>   2</c></rc>
    <rc><c>N </c><c>   2</c></rc>
    <rc><c>N </c><c>   2</c></rc>
    <rc><c>N </c><c>   2</c></rc>
    <rc><c>N </c><c>   2</c></rc>
    <rc><c>N </c><c>   2</c></rc>
    <rc><c>N </c><c>   2</c></rc>
    <rc><c>N </c><c>   2</c></rc>
    <rc><c>N </c><c>   2</c></rc>
    <rc><c>N </c><c>   2</c></rc>
    <rc><c>N </c><c>   2</c></rc>
    <rc><c>N </c><c>   2</c></rc>
    <rc><c>N </c><c>   2</c></rc>
    <rc><c>N </c><c>   2</c></rc>
    <rc><c>N </c><c>   2</c></rc>
    <rc><c>N </c><c>   2</c></rc>
    <rc><c>N </c><c>   2</c></rc>
    <rc><c>N </c><c>   2</c></rc>
    <rc><c>N </c><c>   2</c></rc>
    <rc><c>N </c><c>   2</c></rc>
    <rc><c>N </c><c>   2</c></rc>
    <rc><c>N </c><c>   2</c></rc>
    <rc><c>N </c><c>   2</c></rc>
    <rc><c>N </c><c>   2</c></rc>
    <rc><c>N </c><c>   2</c></rc>
    <rc><c>N </c><c>   2</c></rc>
    <rc><c>N </c><c>   2</c></rc>
    <rc><c>N </c><c>   2</c></rc>
    <rc><c>N </c><c>   2</c></rc>
    <rc><c>N </c><c>   2</c></rc>
    <rc><c>C </c><c>   3</c></rc>
   </set>
  </array>
  <array name="atomtypes" >
   <dimension dim="1">type</dimension>
   <field type="int">atomspertype</field>
   <field type="string">element</field>
   <field>mass</field>
   <field>valence</field>
   <field type="string">pseudopotential</field>
   <set>
    <rc><c>  48</c><c>B </c><c>     10.81100000</c><c>      3.00000000</c><c>  PAW_PBE B 06Sep2000                   </c></rc>
    <rc><c>  48</c><c>N </c><c>     14.00100000</c><c>      5.00000000</c><c>  PAW_PBE N 08Apr2002                   </c></rc>
    <rc><c>   1</c><c>C </c><c>     12.01100000</c><c>      4.00000000</c><c>  PAW_PBE C 08Apr2002                   </c></rc>
   </set>
  </array>
 </atominfo>
 <structure name="initialpos" >
  <crystal>
   <varray name="basis" >
    <v>      17.59966831       0.00000000       0.00000000 </v>
    <v>      -8.79983416      15.24175986       0.00000000 </v>
    <v>       0.00000000       0.00000000      19.92151445 </v>
   </varray>
   <i name="volume">   5343.94461817 </i>
   <varray name="rec_basis" >
    <v>       0.05681925       0.03280461       0.00000000 </v>
    <v>       0.00000000       0.06560922       0.00000000 </v>
    <v>       0.00000000       0.00000000       0.05019699 </v>
   </varray>
  </crystal>
  <varray name="positions" >
   <v>       0.99943010       0.00005992       0.50000000 </v>
   <v>       0.14164706       0.99871895       0.50000000 </v>
   <v>       0.28492260       0.99841663       0.50000000 </v>
   <v>       0.42850047       0.99871895       0.50000000 </v>
   <v>       0.57205839       0.00005992       0.50000000 </v>
   <v>       0.71530655       0.00214292       0.50000000 </v>
   <v>       0.85826494       0.00214292       0.50000000 </v>
   <v>       0.00080792       0.14408264       0.50000000 </v>
   <v>       0.14259355       0.14244783       0.50000000 </v>
   <v>       0.28470221       0.14112972       0.50000000 </v>
   <v>       0.42785608       0.14112972       0.50000000 </v>
   <v>       0.57128286       0.14244783       0.50000000 </v>
   <v>       0.71470329       0.14408264       0.50000000 </v>
   <v>       0.85805263       0.14467669       0.50000000 </v>
   <v>       0.00095476       0.28713011       0.50000000 </v>
   <v>       0.14372552       0.28645370       0.50000000 </v>
   <v>       0.28540977       0.28469374       0.50000000 </v>
   <v>       0.42724431       0.28306005       0.50000000 </v>
   <v>       0.57071254       0.28469374       0.50000000 </v>
   <v>       0.71415674       0.28645370       0.50000000 </v>
   <v>       0.85760392       0.28713011       0.50000000 </v>
   <v>       0.00054479       0.42966101       0.50000000 </v>
   <v>       0.14422690       0.42957551       0.50000000 </v>
   <v>       0.28730213       0.42918005       0.50000000 </v>
   <v>       0.42797654       0.42569726       0.50000000 </v>
   <v>       0.56914930       0.42569726       0.50000000 </v>
   <v>       0.71330650       0.42918005       0.50000000 </v>
   <v>       0.85677719       0.42957551       0.50000000 </v>
   <v>       0.99928255       0.57181462       0.50000000 </v>
   <v>       0.14396064       0.57181462       0.50000000 </v>
   <v>       0.28862787       0.57181625       0.50000000 </v>
   <v>       0.43313209       0.57215564       0.50000000 </v>
   <v>       0.71045212       0.57215564       0.50000000 </v>
   <v>       0.85461695       0.57181625       0.50000000 </v>
   <v>       0.99707234       0.71370518       0.50000000 </v>
   <v>       0.14255519       0.71368182       0.50000000 </v>
   <v>       0.28806142       0.71370518       0.50000000 </v>
   <v>       0.43464191       0.71382540       0.50000000 </v>
   <v>       0.58510826       0.71626937       0.50000000 </v>
   <v>       0.70258968       0.71626937       0.50000000 </v>
   <v>       0.85061206       0.71382540       0.50000000 </v>
   <v>       0.99777175       0.85613493       0.50000000 </v>
   <v>       0.14160898       0.85591288       0.50000000 </v>
   <v>       0.28573247       0.85591288       0.50000000 </v>
   <v>       0.42979175       0.85613493       0.50000000 </v>
   <v>       0.57342541       0.85758690       0.50000000 </v>
   <v>       0.71640633       0.86138410       0.50000000 </v>
   <v>       0.85559006       0.85758690       0.50000000 </v>
   <v>       0.04754270       0.09547788       0.50000000 </v>
   <v>       0.18957833       0.09405657       0.50000000 </v>
   <v>       0.33254182       0.09365506       0.50000000 </v>
   <v>       0.47590681       0.09405657       0.50000000 </v>
   <v>       0.61936376       0.09547788       0.50000000 </v>
   <v>       0.76280004       0.09719274       0.50000000 </v>
   <v>       0.90582126       0.09719274       0.50000000 </v>
   <v>       0.04854983       0.23934281       0.50000000 </v>
   <v>       0.19048138       0.23782962       0.50000000 </v>
   <v>       0.33234878       0.23634667       0.50000000 </v>
   <v>       0.47542646       0.23634667       0.50000000 </v>
   <v>       0.61877681       0.23782962       0.50000000 </v>
   <v>       0.76222155       0.23934281       0.50000000 </v>
   <v>       0.90562797       0.23982737       0.50000000 </v>
   <v>       0.04871288       0.38232824       0.50000000 </v>
   <v>       0.19188940       0.38184213       0.50000000 </v>
   <v>       0.33352206       0.38013969       0.50000000 </v>
   <v>       0.47472270       0.37801683       0.50000000 </v>
   <v>       0.61804620       0.38013969       0.50000000 </v>
   <v>       0.76138130       0.38184213       0.50000000 </v>
   <v>       0.90504393       0.38232824       0.50000000 </v>
   <v>       0.04810654       0.52478452       0.50000000 </v>
   <v>       0.19263929       0.52476864       0.50000000 </v>
   <v>       0.33696521       0.52455433       0.50000000 </v>
   <v>       0.47833704       0.52146721       0.50000000 </v>
   <v>       0.61455874       0.52146721       0.50000000 </v>
   <v>       0.75901769       0.52455433       0.50000000 </v>
   <v>       0.90355792       0.52476864       0.50000000 </v>
   <v>       0.04642473       0.66685228       0.50000000 </v>
   <v>       0.19185612       0.66685228       0.50000000 </v>
   <v>       0.33777931       0.66688794       0.50000000 </v>
   <v>       0.48615700       0.66710760       0.50000000 </v>
   <v>       0.75237918       0.66710760       0.50000000 </v>
   <v>       0.90053720       0.66688794       0.50000000 </v>
   <v>       0.04582562       0.80879365       0.50000000 </v>
   <v>       0.19009580       0.80876303       0.50000000 </v>
   <v>       0.33439660       0.80879365       0.50000000 </v>
   <v>       0.47844872       0.80897069       0.50000000 </v>
   <v>       0.62209487       0.81129474       0.50000000 </v>
   <v>       0.76062845       0.81129474       0.50000000 </v>
   <v>       0.90195054       0.80897069       0.50000000 </v>
   <v>       0.04629157       0.95154386       0.50000000 </v>
   <v>       0.18948291       0.95169856       0.50000000 </v>
   <v>       0.33307603       0.95113037       0.50000000 </v>
   <v>       0.47668087       0.95154386       0.50000000 </v>
   <v>       0.62015751       0.95313740       0.50000000 </v>
   <v>       0.76355772       0.95568687       0.50000000 </v>
   <v>       0.90440847       0.95313740       0.50000000 </v>
   <v>       0.56830873       0.56518888       0.50000000 </v>
  </varray>
 </structure>
 <calculation>
  <scstep>
   <time name="dav">    2.36    2.38</time>
   <time name="total">    2.73    2.82</time>
   <energy>
    <i name="alphaZ">    156.50993408 </i>
    <i name="ewald">  58206.80582672 </i>
    <i name="hartreedc"> -70374.22963160 </i>
    <i name="XCdc">   1302.10875641 </i>
    <i name="pawpsdc">  12033.28670802 </i>
    <i name="pawaedc"> -12049.96799276 </i>
    <i name="eentropy">     -0.00000000 </i>
    <i name="bandstr">   -904.51547900 </i>
    <i name="atom">  16260.93880140 </i>
    <i name="e_fr_energy">   4630.93692327 </i>
    <i name="e_wo_entrp">   4630.93692327 </i>
    <i name="e_0_energy">   4630.93692327 </i>
   </energy>
  </scstep>
  <scstep>
   <time name="dav">    3.01    3.05</time>
   <time name="total">    3.01    3.05</time>
   <energy>
    <i name="e_fr_energy">    216.83475236 </i>
    <i name="e_wo_entrp">    216.83475236 </i>
    <i name="e_0_energy">    216.83475236 </i>
   </energy>
  </scstep>
  <scstep>
   <time name="dav">    2.48    2.51</time>
   <time name="total">    2.48    2.51</time>
   <energy>
    <i name="e_fr_energy">   -867.43833568 </i>
    <i name="e_wo_entrp">   -867.43833568 </i>
    <i name="e_0_energy">   -867.43833568 </i>
   </energy>
  </scstep>
  <scstep>
   <time name="dav">    2.48    2.51</time>
   <time name="total">    2.48    2.51</time>
   <energy>
    <i name="e_fr_energy">   -934.19332725 </i>
    <i name="e_wo_entrp">   -934.19332725 </i>
    <i name="e_0_energy">   -934.19332725 </i>
   </energy>
  </scstep>
  <scstep>
   <time name="dav">    2.50    2.53</time>
   <time name="total">    2.95    2.98</time>
   <energy>
    <i name="e_fr_energy">   -935.77519244 </i>
    <i name="e_wo_entrp">   -935.77519244 </i>
    <i name="e_0_energy">   -935.77519244 </i>
   </energy>
  </scstep>
  <scstep>
   <time name="dav">    2.34    2.36</time>
   <time name="total">    3.14    3.18</time>
   <energy>
    <i name="e_fr_energy">   -858.73062557 </i>
    <i name="e_wo_entrp">   -858.73062557 </i>
    <i name="e_0_energy">   -858.73062557 </i>
   </energy>
  </scstep>
  <scstep>
   <time name="dav">    2.33    2.35</time>
   <time name="total">    3.14    3.17</time>
   <energy>
    <i name="e_fr_energy">   -850.19081363 </i>
    <i name="e_wo_entrp">   -850.19081363 </i>
    <i name="e_0_energy">   -850.19081363 </i>
   </energy>
  </scstep>
  <scstep>
   <time name="dav">    2.29    2.30</time>
   <time name="total">    3.09    3.13</time>
   <energy>
    <i name="e_fr_energy">   -845.92361912 </i>
    <i name="e_wo_entrp">   -845.92361812 </i>
    <i name="e_0_energy">   -845.92361862 </i>
   </energy>
  </scstep>
  <scstep>
   <time name="dav">    2.35    2.37</time>
   <time name="total">    3.15    3.19</time>
   <energy>
    <i name="e_fr_energy">   -845.80047994 </i>
    <i name="e_wo_entrp">   -845.80047994 </i>
    <i name="e_0_energy">   -845.80047994 </i>
   </energy>
  </scstep>
  <scstep>
   <time name="dav">    2.38    2.40</time>
   <time name="total">    3.19    3.22</time>
   <energy>
    <i name="e_fr_energy">   -845.63930236 </i>
    <i name="e_wo_entrp">   -845.63930236 </i>
    <i name="e_0_energy">   -845.63930236 </i>
   </energy>
  </scstep>
  <scstep>
   <time name="dav">    2.24    2.26</time>
   <time name="total">    3.04    3.08</time>
   <energy>
    <i name="e_fr_energy">   -845.58595260 </i>
    <i name="e_wo_entrp">   -845.58595260 </i>
    <i name="e_0_energy">   -845.58595260 </i>
   </energy>
  </scstep>
  <scstep>
   <time name="dav">    2.27    2.29</time>
   <time name="total">    3.08    3.11</time>
   <energy>
    <i name="e_fr_energy">   -845.57367892 </i>
    <i name="e_wo_entrp">   -845.57367892 </i>
    <i name="e_0_energy">   -845.57367892 </i>
   </energy>
  </scstep>
  <scstep>
   <time name="dav">    2.24    2.26</time>
   <time name="total">    3.05    3.09</time>
   <energy>
    <i name="e_fr_energy">   -845.58358154 </i>
    <i name="e_wo_entrp">   -845.58358154 </i>
    <i name="e_0_energy">   -845.58358154 </i>
   </energy>
  </scstep>
  <scstep>
   <time name="dav">    2.25    2.28</time>
   <time name="total">    3.07    3.10</time>
   <energy>
    <i name="e_fr_energy">   -845.59400957 </i>
    <i name="e_wo_entrp">   -845.59400957 </i>
    <i name="e_0_energy">   -845.59400957 </i>
   </energy>
  </scstep>
  <scstep>
   <time name="dav">    2.18    2.20</time>
   <time name="total">    2.99    3.02</time>
   <energy>
    <i name="e_fr_energy">   -845.62518812 </i>
    <i name="e_wo_entrp">   -845.62518812 </i>
    <i name="e_0_energy">   -845.62518812 </i>
   </energy>
  </scstep>
  <scstep>
   <time name="dav">    2.21    2.23</time>
   <time name="total">    3.03    3.06</time>
   <energy>
    <i name="e_fr_energy">   -845.64140848 </i>
    <i name="e_wo_entrp">   -845.64140848 </i>
    <i name="e_0_energy">   -845.64140848 </i>
   </energy>
  </scstep>
  <scstep>
   <time name="dav">    2.28    2.30</time>
   <time name="total">    3.09    3.12</time>
   <energy>
    <i name="e_fr_energy">   -845.64768944 </i>
    <i name="e_wo_entrp">   -845.64768944 </i>
    <i name="e_0_energy">   -845.64768944 </i>
   </energy>
  </scstep>
  <scstep>
   <time name="dav">    2.21    2.23</time>
   <time name="total">    3.02    3.05</time>
   <energy>
    <i name="e_fr_energy">   -845.65088226 </i>
    <i name="e_wo_entrp">   -845.65088226 </i>
    <i name="e_0_energy">   -845.65088226 </i>
   </energy>
  </scstep>
  <scstep>
   <time name="dav">    2.86    2.95</time>
   <time name="total">    3.67    3.78</time>
   <energy>
    <i name="e_fr_energy">   -845.65194922 </i>
    <i name="e_wo_entrp">   -845.65194922 </i>
    <i name="e_0_energy">   -845.65194922 </i>
   </energy>
  </scstep>
  <scstep>
   <time name="dav">    2.23    2.25</time>
   <time name="total">    3.04    3.08</time>
   <energy>
    <i name="e_fr_energy">   -845.65238084 </i>
    <i name="e_wo_entrp">   -845.65238084 </i>
    <i name="e_0_energy">   -845.65238084 </i>
   </energy>
  </scstep>
  <scstep>
   <time name="dav">    2.24    2.27</time>
   <time name="total">    3.06    3.09</time>
   <energy>
    <i name="e_fr_energy">   -845.65257433 </i>
    <i name="e_wo_entrp">   -845.65257433 </i>
    <i name="e_0_energy">   -845.65257433 </i>
   </energy>
  </scstep>
  <scstep>
   <time name="dav">    2.21    2.24</time>
   <time name="total">    3.02    3.06</time>
   <energy>
    <i name="e_fr_energy">   -845.65267864 </i>
    <i name="e_wo_entrp">   -845.65267864 </i>
    <i name="e_0_energy">   -845.65267864 </i>
   </energy>
  </scstep>
  <scstep>
   <time name="dav">    2.25    2.28</time>
   <time name="total">    3.07    3.10</time>
   <energy>
    <i name="e_fr_energy">   -845.65276071 </i>
    <i name="e_wo_entrp">   -845.65276071 </i>
    <i name="e_0_energy">   -845.65276071 </i>
   </energy>
  </scstep>
  <scstep>
   <time name="dav">    2.28    2.30</time>
   <time name="total">    3.09    3.12</time>
   <energy>
    <i name="e_fr_energy">   -845.65279974 </i>
    <i name="e_wo_entrp">   -845.65279974 </i>
    <i name="e_0_energy">   -845.65279974 </i>
   </energy>
  </scstep>
  <scstep>
   <time name="dav">    2.26    2.29</time>
   <time name="total">    3.08    3.12</time>
   <energy>
    <i name="e_fr_energy">   -845.65281956 </i>
    <i name="e_wo_entrp">   -845.65281956 </i>
    <i name="e_0_energy">   -845.65281956 </i>
   </energy>
  </scstep>
  <scstep>
   <time name="dav">    2.23    2.25</time>
   <time name="total">    3.04    3.08</time>
   <energy>
    <i name="e_fr_energy">   -845.65283611 </i>
    <i name="e_wo_entrp">   -845.65283611 </i>
    <i name="e_0_energy">   -845.65283611 </i>
   </energy>
  </scstep>
  <scstep>
   <time name="dav">    2.14    2.16</time>
   <time name="total">    2.95    2.99</time>
   <energy>
    <i name="e_fr_energy">   -845.65283917 </i>
    <i name="e_wo_entrp">   -845.65283917 </i>
    <i name="e_0_energy">   -845.65283917 </i>
   </energy>
  </scstep>
  <scstep>
   <time name="dav">    1.96    1.98</time>
   <time name="total">    2.79    2.83</time>
   <energy>
    <i name="e_fr_energy">   -845.65284044 </i>
    <i name="e_wo_entrp">   -845.65284044 </i>
    <i name="e_0_energy">   -845.65284044 </i>
   </energy>
  </scstep>
  <scstep>
   <time name="dav">    1.77    1.78</time>
   <time name="total">    2.58    2.62</time>
   <energy>
    <i name="e_fr_energy">   -845.65284073 </i>
    <i name="e_wo_entrp">   -845.65284073 </i>
    <i name="e_0_energy">   -845.65284073 </i>
   </energy>
  </scstep>
  <scstep>
   <time name="dav">    1.69    1.71</time>
   <time name="total">    2.52    2.55</time>
   <energy>
    <i name="e_fr_energy">   -845.65284086 </i>
    <i name="e_wo_entrp">   -845.65284086 </i>
    <i name="e_0_energy">   -845.65284086 </i>
   </energy>
  </scstep>
  <scstep>
   <time name="dav">    1.69    1.71</time>
   <time name="total">    2.53    2.55</time>
   <energy>
    <i name="e_fr_energy">   -845.65284092 </i>
    <i name="e_wo_entrp">   -845.65284092 </i>
    <i name="e_0_energy">   -845.65284092 </i>
   </energy>
  </scstep>
  <scstep>
   <time name="dav">    1.70    1.72</time>
   <time name="total">    2.53    2.55</time>
   <energy>
    <i name="e_fr_energy">   -845.65284095 </i>
    <i name="e_wo_entrp">   -845.65284095 </i>
    <i name="e_0_energy">   -845.65284095 </i>
   </energy>
  </scstep>
  <scstep>
   <time name="dav">    1.81    1.83</time>
   <time name="total">    2.19    2.22</time>
   <energy>
    <i name="alphaZ">    156.50993408 </i>
    <i name="ewald">  58206.80582672 </i>
    <i name="hartreedc"> -72314.31546598 </i>
    <i name="XCdc">   1369.72384939 </i>
    <i name="pawpsdc">  44018.78904315 </i>
    <i name="pawaedc"> -44054.13089135 </i>
    <i name="eentropy">     -0.00000000 </i>
    <i name="bandstr">  -4489.97393834 </i>
    <i name="atom">  16260.93880140 </i>
    <i name="e_fr_energy">   -845.65284095 </i>
    <i name="e_wo_entrp">   -845.65284095 </i>
    <i name="e_0_energy">   -845.65284095 </i>
   </energy>
  </scstep>
  <structure>
   <crystal>
    <varray name="basis" >
     <v>      17.59966831       0.00000000       0.00000000 </v>
     <v>      -8.79983416      15.24175986       0.00000000 </v>
     <v>       0.00000000       0.00000000      19.92151445 </v>
    </varray>
    <i name="volume">   5343.94461817 </i>
    <varray name="rec_basis" >
     <v>       0.05681925       0.03280461       0.00000000 </v>
     <v>       0.00000000       0.06560922       0.00000000 </v>
     <v>       0.00000000       0.00000000       0.05019699 </v>
    </varray>
   </crystal>
   <varray name="positions" >
    <v>       0.99943010       0.00005992       0.50000000 </v>
    <v>       0.14164706       0.99871895       0.50000000 </v>
    <v>       0.28492260       0.99841663       0.50000000 </v>
    <v>       0.42850047       0.99871895       0.50000000 </v>
    <v>       0.57205839       0.00005992       0.50000000 </v>
    <v>       0.71530655       0.00214292       0.50000000 </v>
    <v>       0.85826494       0.00214292       0.50000000 </v>
    <v>       0.00080792       0.14408264       0.50000000 </v>
    <v>       0.14259355       0.14244783       0.50000000 </v>
    <v>       0.28470221       0.14112972       0.50000000 </v>
    <v>       0.42785608       0.14112972       0.50000000 </v>
    <v>       0.57128286       0.14244783       0.50000000 </v>
    <v>       0.71470329       0.14408264       0.50000000 </v>
    <v>       0.85805263       0.14467669       0.50000000 </v>
    <v>       0.00095476       0.28713011       0.50000000 </v>
    <v>       0.14372552       0.28645370       0.50000000 </v>
    <v>       0.28540977       0.28469374       0.50000000 </v>
    <v>       0.42724431       0.28306005       0.50000000 </v>
    <v>       0.57071254       0.28469374       0.50000000 </v>
    <v>       0.71415674       0.28645370       0.50000000 </v>
    <v>       0.85760392       0.28713011       0.50000000 </v>
    <v>       0.00054479       0.42966101       0.50000000 </v>
    <v>       0.14422690       0.42957551       0.50000000 </v>
    <v>       0.28730213       0.42918005       0.50000000 </v>
    <v>       0.42797654       0.42569726       0.50000000 </v>
    <v>       0.56914930       0.42569726       0.50000000 </v>
    <v>       0.71330650       0.42918005       0.50000000 </v>
    <v>       0.85677719       0.42957551       0.50000000 </v>
    <v>       0.99928255       0.57181462       0.50000000 </v>
    <v>       0.14396064       0.57181462       0.50000000 </v>
    <v>       0.28862787       0.57181625       0.50000000 </v>
    <v>       0.43313209       0.57215564       0.50000000 </v>
    <v>       0.71045212       0.57215564       0.50000000 </v>
    <v>       0.85461695       0.57181625       0.50000000 </v>
    <v>       0.99707234       0.71370518       0.50000000 </v>
    <v>       0.14255519       0.71368182       0.50000000 </v>
    <v>       0.28806142       0.71370518       0.50000000 </v>
    <v>       0.43464191       0.71382540       0.50000000 </v>
    <v>       0.58510826       0.71626937       0.50000000 </v>
    <v>       0.70258968       0.71626937       0.50000000 </v>
    <v>       0.85061206       0.71382540       0.50000000 </v>
    <v>       0.99777175       0.85613493       0.50000000 </v>
    <v>       0.14160898       0.85591288       0.50000000 </v>
    <v>       0.28573247       0.85591288       0.50000000 </v>
    <v>       0.42979175       0.85613493       0.50000000 </v>
    <v>       0.57342541       0.85758690       0.50000000 </v>
    <v>       0.71640633       0.86138410       0.50000000 </v>
    <v>       0.85559006       0.85758690       0.50000000 </v>
    <v>       0.04754270       0.09547788       0.50000000 </v>
    <v>       0.18957833       0.09405657       0.50000000 </v>
    <v>       0.33254182       0.09365506       0.50000000 </v>
    <v>       0.47590681       0.09405657       0.50000000 </v>
    <v>       0.61936376       0.09547788       0.50000000 </v>
    <v>       0.76280004       0.09719274       0.50000000 </v>
    <v>       0.90582126       0.09719274       0.50000000 </v>
    <v>       0.04854983       0.23934281       0.50000000 </v>
    <v>       0.19048138       0.23782962       0.50000000 </v>
    <v>       0.33234878       0.23634667       0.50000000 </v>
    <v>       0.47542646       0.23634667       0.50000000 </v>
    <v>       0.61877681       0.23782962       0.50000000 </v>
    <v>       0.76222155       0.23934281       0.50000000 </v>
    <v>       0.90562797       0.23982737       0.50000000 </v>
    <v>       0.04871288       0.38232824       0.50000000 </v>
    <v>       0.19188940       0.38184213       0.50000000 </v>
    <v>       0.33352206       0.38013969       0.50000000 </v>
    <v>       0.47472270       0.37801683       0.50000000 </v>
    <v>       0.61804620       0.38013969       0.50000000 </v>
    <v>       0.76138130       0.38184213       0.50000000 </v>
    <v>       0.90504393       0.38232824       0.50000000 </v>
    <v>       0.04810654       0.52478452       0.50000000 </v>
    <v>       0.19263929       0.52476864       0.50000000 </v>
    <v>       0.33696521       0.52455433       0.50000000 </v>
    <v>       0.47833704       0.52146721       0.50000000 </v>
    <v>       0.61455874       0.52146721       0.50000000 </v>
    <v>       0.75901769       0.52455433       0.50000000 </v>
    <v>       0.90355792       0.52476864       0.50000000 </v>
    <v>       0.04642473       0.66685228       0.50000000 </v>
    <v>       0.19185612       0.66685228       0.50000000 </v>
    <v>       0.33777931       0.66688794       0.50000000 </v>
    <v>       0.48615700       0.66710760       0.50000000 </v>
    <v>       0.75237918       0.66710760       0.50000000 </v>
    <v>       0.90053720       0.66688794       0.50000000 </v>
    <v>       0.04582562       0.80879365       0.50000000 </v>
    <v>       0.19009580       0.80876303       0.50000000 </v>
    <v>       0.33439660       0.80879365       0.50000000 </v>
    <v>       0.47844872       0.80897069       0.50000000 </v>
    <v>       0.62209487       0.81129474       0.50000000 </v>
    <v>       0.76062845       0.81129474       0.50000000 </v>
    <v>       0.90195054       0.80897069       0.50000000 </v>
    <v>       0.04629157       0.95154386       0.50000000 </v>
    <v>       0.18948291       0.95169856       0.50000000 </v>
    <v>       0.33307603       0.95113037       0.50000000 </v>
    <v>       0.47668087       0.95154386       0.50000000 </v>
    <v>       0.62015751       0.95313740       0.50000000 </v>
    <v>       0.76355772       0.95568687       0.50000000 </v>
    <v>       0.90440847       0.95313740       0.50000000 </v>
    <v>       0.56830873       0.56518888       0.50000000 </v>
   </varray>
  </structure>
  <varray name="forces" >
   <v>      -0.03238432      -0.02835664      -0.00000000 </v>
   <v>      -0.16511635       0.11904693      -0.00000000 </v>
   <v>      -0.04215582       0.05669450      -0.00000000 </v>
   <v>       0.02433661      -0.00163941      -0.00000000 </v>
   <v>       0.04153542      -0.02469635      -0.00000000 </v>
   <v>      -0.03222208      -0.04925319       0.00000000 </v>
   <v>       0.03574735      -0.04947527      -0.00000000 </v>
   <v>      -0.00167473      -0.02924219      -0.00000000 </v>
   <v>      -0.01380498      -0.02896777      -0.00000000 </v>
   <v>      -0.01878978      -0.04227298      -0.00000000 </v>
   <v>      -0.00033076      -0.03155754      -0.00000000 </v>
   <v>       0.02686851      -0.02514486       0.00000000 </v>
   <v>       0.00686416      -0.02706047      -0.00000000 </v>
   <v>       0.00185196      -0.04237615       0.00000000 </v>
   <v>      -0.00658521      -0.03137843       0.00000000 </v>
   <v>       0.00847655      -0.04704756      -0.00000000 </v>
   <v>      -0.03031990      -0.00683366       0.00000000 </v>
   <v>      -0.00349801      -0.09637379      -0.00000000 </v>
   <v>       0.02810849      -0.00346191      -0.00000000 </v>
   <v>      -0.00565910      -0.04522022       0.00000000 </v>
   <v>       0.00934897      -0.03074682      -0.00000000 </v>
   <v>       0.00072213       0.00449733      -0.00000000 </v>
   <v>      -0.02397058      -0.00356886      -0.00000000 </v>
   <v>       0.05842142      -0.14084004      -0.00000000 </v>
   <v>      -0.11251778      -0.20181500      -0.00000000 </v>
   <v>       0.11053011      -0.20108947      -0.00000000 </v>
   <v>      -0.05851211      -0.13949487      -0.00000000 </v>
   <v>       0.02517545      -0.00301083      -0.00000000 </v>
   <v>       0.01670335       0.02408036       0.00000000 </v>
   <v>      -0.01632220       0.02478914       0.00000000 </v>
   <v>      -0.08420144       0.12603170       0.00000000 </v>
   <v>       0.05108021       0.39549228       0.00000000 </v>
   <v>      -0.05171289       0.39634756      -0.00000000 </v>
   <v>       0.08443611       0.12660671      -0.00000000 </v>
   <v>      -0.01047726       0.01529216      -0.00000000 </v>
   <v>      -0.00385156       0.01449146      -0.00000000 </v>
   <v>       0.01190298       0.02008377       0.00000000 </v>
   <v>       0.08842322       0.04259792      -0.00000000 </v>
   <v>       1.36474319       1.25079683      -0.00000000 </v>
   <v>      -1.36475750       1.25157724       0.00000000 </v>
   <v>      -0.08937524       0.04505171      -0.00000000 </v>
   <v>      -0.05731621       0.01130984       0.00000000 </v>
   <v>      -0.05342926       0.17724116      -0.00000000 </v>
   <v>       0.02604994       0.00058417      -0.00000000 </v>
   <v>       0.05060713      -0.00605554       0.00000000 </v>
   <v>       0.15263542       0.03691851       0.00000000 </v>
   <v>       0.00081351      -0.25156678      -0.00000000 </v>
   <v>      -0.15094981       0.03978524      -0.00000000 </v>
   <v>       0.01995635       0.03328971      -0.00000000 </v>
   <v>      -0.01548359       0.06308398      -0.00000000 </v>
   <v>       0.02929213       0.04057848       0.00000000 </v>
   <v>      -0.00830654       0.01926234       0.00000000 </v>
   <v>      -0.02683612       0.03102956      -0.00000000 </v>
   <v>      -0.01383857       0.02691853       0.00000000 </v>
   <v>       0.00976228       0.02718958      -0.00000000 </v>
   <v>       0.01379164       0.03758313      -0.00000000 </v>
   <v>      -0.01218750       0.00949383       0.00000000 </v>
   <v>       0.01813196       0.04203084      -0.00000000 </v>
   <v>      -0.01163210       0.03764404       0.00000000 </v>
   <v>       0.00972876       0.00315707       0.00000000 </v>
   <v>      -0.01647703       0.03586811      -0.00000000 </v>
   <v>      -0.00135376       0.03222892       0.00000000 </v>
   <v>       0.00991647       0.02847553      -0.00000000 </v>
   <v>       0.04634279       0.06250605      -0.00000000 </v>
   <v>      -0.02204936      -0.19650573      -0.00000000 </v>
   <v>       0.00113648       0.11259632       0.00000000 </v>
   <v>       0.02327027      -0.19876794      -0.00000000 </v>
   <v>      -0.04715613       0.06053856       0.00000000 </v>
   <v>      -0.01128660       0.02795789       0.00000000 </v>
   <v>      -0.00050384       0.01224872      -0.00000000 </v>
   <v>       0.02411143      -0.00417442      -0.00000000 </v>
   <v>       0.18906374       0.11475561      -0.00000000 </v>
   <v>       1.02293030      -1.56227744       0.00000000 </v>
   <v>      -1.02222534      -1.56294351      -0.00000000 </v>
   <v>      -0.18880910       0.11363646      -0.00000000 </v>
   <v>      -0.02443089      -0.00472013       0.00000000 </v>
   <v>       0.01216860      -0.02699573       0.00000000 </v>
   <v>      -0.01326235      -0.02693341       0.00000000 </v>
   <v>      -0.06160465      -0.06457714      -0.00000000 </v>
   <v>      -0.27167567       0.01009884       0.00000000 </v>
   <v>       0.27168663       0.00900555      -0.00000000 </v>
   <v>       0.06273364      -0.06485629      -0.00000000 </v>
   <v>       0.06034786      -0.00305761       0.00000000 </v>
   <v>      -0.02112730       0.03116946       0.00000000 </v>
   <v>      -0.04281512      -0.01188433      -0.00000000 </v>
   <v>      -0.08778878      -0.01329492      -0.00000000 </v>
   <v>      -0.88749568       0.24363764      -0.00000000 </v>
   <v>       0.88557452       0.24241823      -0.00000000 </v>
   <v>       0.08726326      -0.01751568       0.00000000 </v>
   <v>       0.01067735       0.00138916      -0.00000000 </v>
   <v>       0.28283394      -0.46602080      -0.00000000 </v>
   <v>      -0.03515068      -0.02199303       0.00000000 </v>
   <v>      -0.03535825       0.01447346       0.00000000 </v>
   <v>      -0.11232830       0.11834554      -0.00000000 </v>
   <v>      -0.00173573       0.01547417       0.00000000 </v>
   <v>       0.10708274       0.11666847      -0.00000000 </v>
   <v>      -0.00033148      -0.11900562       0.00000000 </v>
  </varray>
  <varray name="stress" >
   <v>     -10.57317065      -0.01771202       0.00000000 </v>
   <v>      -0.01771202       3.00521779       0.00000000 </v>
   <v>       0.00000000       0.00000000      -0.42556373 </v>
  </varray>
  <energy>
   <i name="e_fr_energy">   -845.65284095 </i>
   <i name="e_wo_entrp">   -845.65284095 </i>
   <i name="e_0_energy">     -0.00000000 </i>
  </energy>
  <time name="totalsc">  104.43  105.79</time>
  <eigenvalues>
   <array>
    <dimension dim="1">band</dimension>
    <dimension dim="2">kpoint</dimension>
    <dimension dim="3">spin</dimension>
    <field>eigene</field>
    <field>occ</field>
    <set>
     <set comment="spin 1">
      <set comment="kpoint 1">
       <r>  -22.5402    1.0000 </r>
       <r>  -22.0198    1.0000 </r>
       <r>  -21.7721    1.0000 </r>
       <r>  -21.7435    1.0000 </r>
       <r>  -21.6984    1.0000 </r>
       <r>  -21.6548    1.0000 </r>
       <r>  -21.6167    1.0000 </r>
       <r>  -21.2364    1.0000 </r>
       <r>  -21.0703    1.0000 </r>
       <r>  -21.0045    1.0000 </r>
       <r>  -20.9683    1.0000 </r>
       <r>  -20.9263    1.0000 </r>
       <r>  -20.8778    1.0000 </r>
       <r>  -20.7434    1.0000 </r>
       <r>  -20.7030    1.0000 </r>
       <r>  -20.6640    1.0000 </r>
       <r>  -20.5936    1.0000 </r>
       <r>  -20.5686    1.0000 </r>
       <r>  -20.4278    1.0000 </r>
       <r>  -19.9813    1.0000 </r>
       <r>  -19.9242    1.0000 </r>
       <r>  -19.8029    1.0000 </r>
       <r>  -19.7623    1.0000 </r>
       <r>  -19.7397    1.0000 </r>
       <r>  -19.7371    1.0000 </r>
       <r>  -19.7055    1.0000 </r>
       <r>  -19.6982    1.0000 </r>
       <r>  -19.6426    1.0000 </r>
       <r>  -19.6402    1.0000 </r>
       <r>  -19.6290    1.0000 </r>
       <r>  -19.4920    1.0000 </r>
       <r>  -19.4073    1.0000 </r>
       <r>  -19.3633    1.0000 </r>
       <r>  -19.3565    1.0000 </r>
       <r>  -19.2907    1.0000 </r>
       <r>  -19.2393    1.0000 </r>
       <r>  -19.1083    1.0000 </r>
       <r>  -19.0001    1.0000 </r>
       <r>  -18.9317    1.0000 </r>
       <r>  -18.8739    1.0000 </r>
       <r>  -18.8522    1.0000 </r>
       <r>  -18.8370    1.0000 </r>
       <r>  -18.7672    1.0000 </r>
       <r>  -18.7493    1.0000 </r>
       <r>  -18.7274    1.0000 </r>
       <r>  -18.7169    1.0000 </r>
       <r>  -18.6945    1.0000 </r>
       <r>  -18.4446    1.0000 </r>
       <r>  -14.1401    1.0000 </r>
       <r>  -13.1810    1.0000 </r>
       <r>  -13.1562    1.0000 </r>
       <r>  -13.1089    1.0000 </r>
       <r>  -13.1029    1.0000 </r>
       <r>  -13.0780    1.0000 </r>
       <r>  -13.0200    1.0000 </r>
       <r>  -12.9602    1.0000 </r>
       <r>  -12.9504    1.0000 </r>
       <r>  -12.9353    1.0000 </r>
       <r>  -12.8047    1.0000 </r>
       <r>  -12.7678    1.0000 </r>
       <r>  -12.6017    1.0000 </r>
       <r>  -12.5032    1.0000 </r>
       <r>  -12.4843    1.0000 </r>
       <r>  -12.3784    1.0000 </r>
       <r>  -12.3103    1.0000 </r>
       <r>  -12.2968    1.0000 </r>
       <r>  -12.1777    1.0000 </r>
       <r>  -11.9011    1.0000 </r>
       <r>  -11.8834    1.0000 </r>
       <r>  -11.7671    1.0000 </r>
       <r>  -11.7660    1.0000 </r>
       <r>  -11.7508    1.0000 </r>
       <r>  -11.7414    1.0000 </r>
       <r>  -11.6942    1.0000 </r>
       <r>  -11.6557    1.0000 </r>
       <r>  -11.6332    1.0000 </r>
       <r>  -11.5402    1.0000 </r>
       <r>  -11.4224    1.0000 </r>
       <r>  -11.1992    1.0000 </r>
       <r>  -11.1230    1.0000 </r>
       <r>  -11.0853    1.0000 </r>
       <r>  -11.0595    1.0000 </r>
       <r>  -10.9650    1.0000 </r>
       <r>  -10.9137    1.0000 </r>
       <r>  -10.6843    1.0000 </r>
       <r>  -10.4625    1.0000 </r>
       <r>  -10.4312    1.0000 </r>
       <r>  -10.3492    1.0000 </r>
       <r>  -10.2543    1.0000 </r>
       <r>  -10.2055    1.0000 </r>
       <r>   -9.8902    1.0000 </r>
       <r>   -9.7696    1.0000 </r>
       <r>   -9.7642    1.0000 </r>
       <r>   -9.7238    1.0000 </r>
       <r>   -9.6775    1.0000 </r>
       <r>   -9.5882    1.0000 </r>
       <r>   -9.5390    1.0000 </r>
       <r>   -9.4986    1.0000 </r>
       <r>   -9.4640    1.0000 </r>
       <r>   -9.3519    1.0000 </r>
       <r>   -9.3449    1.0000 </r>
       <r>   -9.2878    1.0000 </r>
       <r>   -9.2609    1.0000 </r>
       <r>   -9.2572    1.0000 </r>
       <r>   -9.2551    1.0000 </r>
       <r>   -9.2390    1.0000 </r>
       <r>   -9.2243    1.0000 </r>
       <r>   -9.2222    1.0000 </r>
       <r>   -9.2075    1.0000 </r>
       <r>   -9.2016    1.0000 </r>
       <r>   -9.1991    1.0000 </r>
       <r>   -9.1975    1.0000 </r>
       <r>   -9.1570    1.0000 </r>
       <r>   -9.1332    1.0000 </r>
       <r>   -9.1119    1.0000 </r>
       <r>   -9.1105    1.0000 </r>
       <r>   -9.0989    1.0000 </r>
       <r>   -9.0432    1.0000 </r>
       <r>   -8.9925    1.0000 </r>
       <r>   -8.8465    1.0000 </r>
       <r>   -8.7945    1.0000 </r>
       <r>   -8.6533    1.0000 </r>
       <r>   -8.5062    1.0000 </r>
       <r>   -8.4841    1.0000 </r>
       <r>   -8.4410    1.0000 </r>
       <r>   -8.3273    1.0000 </r>
       <r>   -8.2236    1.0000 </r>
       <r>   -8.2005    1.0000 </r>
       <r>   -8.1978    1.0000 </r>
       <r>   -8.1702    1.0000 </r>
       <r>   -8.1496    1.0000 </r>
       <r>   -8.1224    1.0000 </r>
       <r>   -8.0400    1.0000 </r>
       <r>   -7.9712    1.0000 </r>
       <r>   -7.9502    1.0000 </r>
       <r>   -7.8771    1.0000 </r>
       <r>   -7.8495    1.0000 </r>
       <r>   -7.8443    1.0000 </r>
       <r>   -7.7997    1.0000 </r>
       <r>   -7.7970    1.0000 </r>
       <r>   -7.7950    1.0000 </r>
       <r>   -7.7376    1.0000 </r>
       <r>   -7.7344    1.0000 </r>
       <r>   -7.7125    1.0000 </r>
       <r>   -7.6774    1.0000 </r>
       <r>   -7.6741    1.0000 </r>
       <r>   -7.6631    1.0000 </r>
       <r>   -7.6380    1.0000 </r>
       <r>   -7.6330    1.0000 </r>
       <r>   -7.4418    1.0000 </r>
       <r>   -7.4354    1.0000 </r>
       <r>   -7.4267    1.0000 </r>
       <r>   -7.3847    1.0000 </r>
       <r>   -7.3631    1.0000 </r>
       <r>   -7.2736    1.0000 </r>
       <r>   -6.8311    1.0000 </r>
       <r>   -6.7596    1.0000 </r>
       <r>   -6.6254    1.0000 </r>
       <r>   -6.6059    1.0000 </r>
       <r>   -6.5427    1.0000 </r>
       <r>   -6.5377    1.0000 </r>
       <r>   -6.4974    1.0000 </r>
       <r>   -6.4877    1.0000 </r>
       <r>   -6.4564    1.0000 </r>
       <r>   -6.4553    1.0000 </r>
       <r>   -6.4441    1.0000 </r>
       <r>   -6.4406    1.0000 </r>
       <r>   -6.4092    1.0000 </r>
       <r>   -6.4042    1.0000 </r>
       <r>   -6.3586    1.0000 </r>
       <r>   -6.3455    1.0000 </r>
       <r>   -6.3181    1.0000 </r>
       <r>   -6.1100    1.0000 </r>
       <r>   -5.9717    1.0000 </r>
       <r>   -5.9241    1.0000 </r>
       <r>   -5.8850    1.0000 </r>
       <r>   -5.8781    1.0000 </r>
       <r>   -5.8630    1.0000 </r>
       <r>   -5.7813    1.0000 </r>
       <r>   -5.7805    1.0000 </r>
       <r>   -5.5280    1.0000 </r>
       <r>   -5.2203    1.0000 </r>
       <r>   -5.1975    1.0000 </r>
       <r>   -5.1967    1.0000 </r>
       <r>   -5.1414    1.0000 </r>
       <r>   -5.1319    1.0000 </r>
       <r>   -5.1044    1.0000 </r>
       <r>   -5.0007    1.0000 </r>
       <r>   -4.9423    1.0000 </r>
       <r>   -4.9189    1.0000 </r>
       <r>   -4.9053    1.0000 </r>
       <r>   -4.9018    1.0000 </r>
       <r>   -4.7313    1.0000 </r>
       <r>   -1.3154    1.0000 </r>
       <r>   -1.2024    0.0000 </r>
       <r>    0.0603    0.0000 </r>
       <r>    0.2050    0.0000 </r>
       <r>    0.2378    0.0000 </r>
       <r>    0.2589    0.0000 </r>
       <r>    0.2630    0.0000 </r>
       <r>    0.3035    0.0000 </r>
       <r>    0.3041    0.0000 </r>
       <r>    0.3765    0.0000 </r>
       <r>    0.3902    0.0000 </r>
       <r>    0.4355    0.0000 </r>
       <r>    0.4799    0.0000 </r>
       <r>    0.5269    0.0000 </r>
       <r>    0.6101    0.0000 </r>
       <r>    0.7438    0.0000 </r>
       <r>    0.7477    0.0000 </r>
       <r>    0.7804    0.0000 </r>
       <r>    0.8065    0.0000 </r>
       <r>    0.8124    0.0000 </r>
       <r>    0.8290    0.0000 </r>
       <r>    0.8370    0.0000 </r>
       <r>    0.8586    0.0000 </r>
       <r>    0.8714    0.0000 </r>
       <r>    0.9827    0.0000 </r>
       <r>    1.0200    0.0000 </r>
       <r>    1.0605    0.0000 </r>
       <r>    1.1189    0.0000 </r>
       <r>    1.4953    0.0000 </r>
       <r>    1.6732    0.0000 </r>
       <r>    1.6976    0.0000 </r>
       <r>    1.7067    0.0000 </r>
       <r>    1.7230    0.0000 </r>
       <r>    1.7397    0.0000 </r>
       <r>    1.7442    0.0000 </r>
       <r>    1.8056    0.0000 </r>
       <r>    1.8075    0.0000 </r>
       <r>    1.8412    0.0000 </r>
       <r>    1.8464    0.0000 </r>
       <r>    1.8788    0.0000 </r>
       <r>    1.8833    0.0000 </r>
       <r>    1.9067    0.0000 </r>
       <r>    1.9104    0.0000 </r>
       <r>    1.9299    0.0000 </r>
       <r>    1.9824    0.0000 </r>
       <r>    2.0302    0.0000 </r>
       <r>    2.1045    0.0000 </r>
       <r>    2.1097    0.0000 </r>
       <r>    2.1296    0.0000 </r>
       <r>    2.1353    0.0000 </r>
       <r>    2.1404    0.0000 </r>
      </set>
     </set>
    </set>
   </array>
  </eigenvalues>
  <separator name="orbital magnetization" >
   <v name="MAGDIPOLOUT">      0.00000000      0.00000000      0.00000000</v>
  </separator>
  <dos>
   <i name="efermi">     -1.25212237 </i>
   <total>
    <array>
     <dimension dim="1">gridpoints</dimension>
     <dimension dim="2">spin</dimension>
     <field>energy</field>
     <field>total</field>
     <field>integrated</field>
     <set>
      <set comment="spin 1">
       <r>   -23.7742     0.0000     0.0000 </r>
       <r>   -23.6837     0.0000     0.0000 </r>
       <r>   -23.5932     0.0000     0.0000 </r>
       <r>   -23.5027     0.0000     0.0000 </r>
       <r>   -23.4122     0.0000     0.0000 </r>
       <r>   -23.3217     0.0000     0.0000 </r>
       <r>   -23.2312     0.0000     0.0000 </r>
       <r>   -23.1407     0.0000     0.0000 </r>
       <r>   -23.0502     0.0000     0.0000 </r>
       <r>   -22.9597     0.0000     0.0000 </r>
       <r>   -22.8692     0.0000     0.0000 </r>
       <r>   -22.7788     0.0000     0.0000 </r>
       <r>   -22.6883     0.0000     0.0000 </r>
       <r>   -22.5978     0.0000     0.0000 </r>
       <r>   -22.5073    22.1005     2.0000 </r>
       <r>   -22.4168     0.0000     2.0000 </r>
       <r>   -22.3263     0.0000     2.0000 </r>
       <r>   -22.2358     0.0000     2.0000 </r>
       <r>   -22.1453     0.0000     2.0000 </r>
       <r>   -22.0548     0.0000     2.0000 </r>
       <r>   -21.9643    22.1005     4.0000 </r>
       <r>   -21.8738     0.0000     4.0000 </r>
       <r>   -21.7833     1.2671     4.1147 </r>
       <r>   -21.6928    60.2523     9.5672 </r>
       <r>   -21.6023    43.7435    13.9586 </r>
       <r>   -21.5118     0.0000    14.0000 </r>
       <r>   -21.4213     0.0000    14.0000 </r>
       <r>   -21.3308     0.0000    14.0000 </r>
       <r>   -21.2403     6.4080    14.5799 </r>
       <r>   -21.1498     0.0000    16.0000 </r>
       <r>   -21.0593    20.7490    17.8777 </r>
       <r>   -20.9688    32.5213    20.9430 </r>
       <r>   -20.8783    32.4403    24.9357 </r>
       <r>   -20.7879     0.0000    26.0000 </r>
       <r>   -20.6974    39.5475    29.5789 </r>
       <r>   -20.6069    22.7631    32.0600 </r>
       <r>   -20.5164    43.5385    36.0000 </r>
       <r>   -20.4259    13.4607    37.2181 </r>
       <r>   -20.3354     0.0000    38.0000 </r>
       <r>   -20.2449     0.0000    38.0000 </r>
       <r>   -20.1544     0.0000    38.0000 </r>
       <r>   -20.0639     0.0000    38.0000 </r>
       <r>   -19.9734    19.2043    39.7379 </r>
       <r>   -19.8829    22.1005    42.0000 </r>
       <r>   -19.7924    20.5697    43.8615 </r>
       <r>   -19.7019    88.2596    51.9871 </r>
       <r>   -19.6114    66.1561    59.9868 </r>
       <r>   -19.5209     0.0005    60.0000 </r>
       <r>   -19.4304    22.1118    62.0011 </r>
       <r>   -19.3399    66.0655    67.9797 </r>
       <r>   -19.2494    23.7884    70.1527 </r>
       <r>   -19.1589     0.0000    72.0000 </r>
       <r>   -19.0684    22.1005    74.0000 </r>
       <r>   -18.9779    22.0816    75.9983 </r>
       <r>   -18.8874    22.7206    78.0561 </r>
       <r>   -18.7969    65.6818    84.0000 </r>
       <r>   -18.7065    87.8100    91.9464 </r>
       <r>   -18.6160    21.1023    94.0000 </r>
       <r>   -18.5255     0.0000    94.0000 </r>
       <r>   -18.4350    20.1939    95.8275 </r>
       <r>   -18.3445     0.0000    96.0000 </r>
       <r>   -18.2540     0.0000    96.0000 </r>
       <r>   -18.1635     0.0000    96.0000 </r>
       <r>   -18.0730     0.0000    96.0000 </r>
       <r>   -17.9825     0.0000    96.0000 </r>
       <r>   -17.8920     0.0000    96.0000 </r>
       <r>   -17.8015     0.0000    96.0000 </r>
       <r>   -17.7110     0.0000    96.0000 </r>
       <r>   -17.6205     0.0000    96.0000 </r>
       <r>   -17.5300     0.0000    96.0000 </r>
       <r>   -17.4395     0.0000    96.0000 </r>
       <r>   -17.3490     0.0000    96.0000 </r>
       <r>   -17.2585     0.0000    96.0000 </r>
       <r>   -17.1680     0.0000    96.0000 </r>
       <r>   -17.0775     0.0000    96.0000 </r>
       <r>   -16.9870     0.0000    96.0000 </r>
       <r>   -16.8965     0.0000    96.0000 </r>
       <r>   -16.8060     0.0000    96.0000 </r>
       <r>   -16.7156     0.0000    96.0000 </r>
       <r>   -16.6251     0.0000    96.0000 </r>
       <r>   -16.5346     0.0000    96.0000 </r>
       <r>   -16.4441     0.0000    96.0000 </r>
       <r>   -16.3536     0.0000    96.0000 </r>
       <r>   -16.2631     0.0000    96.0000 </r>
       <r>   -16.1726     0.0000    96.0000 </r>
       <r>   -16.0821     0.0000    96.0000 </r>
       <r>   -15.9916     0.0000    96.0000 </r>
       <r>   -15.9011     0.0000    96.0000 </r>
       <r>   -15.8106     0.0000    96.0000 </r>
       <r>   -15.7201     0.0000    96.0000 </r>
       <r>   -15.6296     0.0000    96.0000 </r>
       <r>   -15.5391     0.0000    96.0000 </r>
       <r>   -15.4486     0.0000    96.0000 </r>
       <r>   -15.3581     0.0000    96.0000 </r>
       <r>   -15.2676     0.0000    96.0000 </r>
       <r>   -15.1771     0.0000    96.0000 </r>
       <r>   -15.0866     0.0000    96.0000 </r>
       <r>   -14.9961     0.0000    96.0000 </r>
       <r>   -14.9056     0.0000    96.0000 </r>
       <r>   -14.8151     0.0000    96.0000 </r>
       <r>   -14.7246     0.0000    96.0000 </r>
       <r>   -14.6342     0.0000    96.0000 </r>
       <r>   -14.5437     0.0000    96.0000 </r>
       <r>   -14.4532     0.0000    96.0000 </r>
       <r>   -14.3627     0.0000    96.0000 </r>
       <r>   -14.2722     0.0000    96.0000 </r>
       <r>   -14.1817     0.0000    96.0000 </r>
       <r>   -14.0912    22.1005    98.0000 </r>
       <r>   -14.0007     0.0000    98.0000 </r>
       <r>   -13.9102     0.0000    98.0000 </r>
       <r>   -13.8197     0.0000    98.0000 </r>
       <r>   -13.7292     0.0000    98.0000 </r>
       <r>   -13.6387     0.0000    98.0000 </r>
       <r>   -13.5482     0.0000    98.0000 </r>
       <r>   -13.4577     0.0000    98.0000 </r>
       <r>   -13.3672     0.0000    98.0000 </r>
       <r>   -13.2767     0.0000    98.0000 </r>
       <r>   -13.1862     5.1300    98.4642 </r>
       <r>   -13.0957    62.2848   105.6365 </r>
       <r>   -13.0052    43.6613   109.9633 </r>
       <r>   -12.9147    66.2608   115.9963 </r>
       <r>   -12.8242     0.0629   116.0057 </r>
       <r>   -12.7337    44.1382   120.0000 </r>
       <r>   -12.6433     0.0000   120.0000 </r>
       <r>   -12.5528    22.1005   122.0000 </r>
       <r>   -12.4623    44.1807   125.9982 </r>
       <r>   -12.3718    18.2288   127.6496 </r>
       <r>   -12.2813    43.8874   131.9716 </r>
       <r>   -12.1908     0.7172   132.0649 </r>
       <r>   -12.1003    21.3833   134.0000 </r>
       <r>   -12.0098     0.0000   134.0000 </r>
       <r>   -11.9193     0.1138   134.0103 </r>
       <r>   -11.8288    44.0873   138.0000 </r>
       <r>   -11.7383    80.3005   145.2668 </r>
       <r>   -11.6478    41.7091   149.7745 </r>
       <r>   -11.5573    21.8450   152.0153 </r>
       <r>   -11.4668    21.9313   154.0000 </r>
       <r>   -11.3763    22.1005   156.0000 </r>
       <r>   -11.2858     0.0000   156.0000 </r>
       <r>   -11.1953    15.6123   157.4128 </r>
       <r>   -11.1048    22.0510   159.9955 </r>
       <r>   -11.0143    44.1368   164.0000 </r>
       <r>   -10.9238    23.7928   166.1531 </r>
       <r>   -10.8333     0.0000   168.0000 </r>
       <r>   -10.7428     0.0000   168.0000 </r>
       <r>   -10.6523    22.1005   170.0000 </r>
       <r>   -10.5619     0.0000   170.0000 </r>
       <r>   -10.4714     2.3125   170.2093 </r>
       <r>   -10.3809    22.1006   174.0000 </r>
       <r>   -10.2904    22.1005   176.0000 </r>
       <r>   -10.1999    39.5360   179.5778 </r>
       <r>   -10.1094     0.0000   180.0000 </r>
       <r>   -10.0189     0.0000   180.0000 </r>
       <r>    -9.9284     0.0000   180.0000 </r>
       <r>    -9.8379    22.1005   182.0000 </r>
       <r>    -9.7474    44.0028   185.9821 </r>
       <r>    -9.6569    44.1515   189.9964 </r>
       <r>    -9.5664    22.0786   191.9980 </r>
       <r>    -9.4759    45.1909   196.0897 </r>
       <r>    -9.3854    21.0946   198.0000 </r>
       <r>    -9.2949    47.7064   202.3172 </r>
       <r>    -9.2044   163.4037   218.7873 </r>
       <r>    -9.1139    59.9088   229.4215 </r>
       <r>    -9.0234    43.7724   235.9949 </r>
       <r>    -8.9329    22.1004   238.0000 </r>
       <r>    -8.8424    15.8517   239.4345 </r>
       <r>    -8.7519    22.1005   242.0000 </r>
       <r>    -8.6614     2.7343   242.2474 </r>
       <r>    -8.5710     0.0000   244.0000 </r>
       <r>    -8.4805    37.5466   247.3978 </r>
       <r>    -8.3900    22.1005   250.0000 </r>
       <r>    -8.2995    22.0996   251.9999 </r>
       <r>    -8.2090    25.5065   254.3082 </r>
       <r>    -8.1185    80.7726   263.4232 </r>
       <r>    -8.0280    21.1054   265.9099 </r>
       <r>    -7.9375    43.4153   269.9289 </r>
       <r>    -7.8470    43.9233   273.9749 </r>
       <r>    -7.7565    66.4058   282.0094 </r>
       <r>    -7.6660   113.9960   292.3256 </r>
       <r>    -7.5755    44.2002   298.0000 </r>
       <r>    -7.4850     0.0000   298.0000 </r>
       <r>    -7.3945    68.1302   304.1655 </r>
       <r>    -7.3040    22.1006   308.0000 </r>
       <r>    -7.2135    22.1003   310.0000 </r>
       <r>    -7.1230     0.0000   310.0000 </r>
       <r>    -7.0325     0.0000   310.0000 </r>
       <r>    -6.9420     0.0000   310.0000 </r>
       <r>    -6.8515     0.0428   310.0039 </r>
       <r>    -6.7610    31.2694   312.8336 </r>
       <r>    -6.6705     0.0000   314.0000 </r>
       <r>    -6.5800    44.1982   317.9997 </r>
       <r>    -6.4896    72.0743   324.5224 </r>
       <r>    -6.3991   125.8196   337.3861 </r>
       <r>    -6.3086    64.3518   343.8236 </r>
       <r>    -6.2181     0.0000   344.0000 </r>
       <r>    -6.1276     0.1450   344.0131 </r>
       <r>    -6.0371    21.9555   346.0000 </r>
       <r>    -5.9466    22.1124   348.0011 </r>
       <r>    -5.8561    84.7157   355.6678 </r>
       <r>    -5.7656    43.5240   359.9387 </r>
       <r>    -5.6751     0.0000   360.0000 </r>
       <r>    -5.5846     0.0000   360.0000 </r>
       <r>    -5.4941    22.1005   362.0000 </r>
       <r>    -5.4036     0.0000   362.0000 </r>
       <r>    -5.3131     0.0000   362.0000 </r>
       <r>    -5.2226     8.1777   362.7400 </r>
       <r>    -5.1321    74.9450   370.7828 </r>
       <r>    -5.0416    22.0995   374.0000 </r>
       <r>    -4.9511    24.4577   376.2133 </r>
       <r>    -4.8606    66.3015   384.0000 </r>
       <r>    -4.7701     0.0000   384.0000 </r>
       <r>    -4.6796    22.1005   386.0000 </r>
       <r>    -4.5891     0.0000   386.0000 </r>
       <r>    -4.4987     0.0000   386.0000 </r>
       <r>    -4.4082     0.0000   386.0000 </r>
       <r>    -4.3177     0.0000   386.0000 </r>
       <r>    -4.2272     0.0000   386.0000 </r>
       <r>    -4.1367     0.0000   386.0000 </r>
       <r>    -4.0462     0.0000   386.0000 </r>
       <r>    -3.9557     0.0000   386.0000 </r>
       <r>    -3.8652     0.0000   386.0000 </r>
       <r>    -3.7747     0.0000   386.0000 </r>
       <r>    -3.6842     0.0000   386.0000 </r>
       <r>    -3.5937     0.0000   386.0000 </r>
       <r>    -3.5032     0.0000   386.0000 </r>
       <r>    -3.4127     0.0000   386.0000 </r>
       <r>    -3.3222     0.0000   386.0000 </r>
       <r>    -3.2317     0.0000   386.0000 </r>
       <r>    -3.1412     0.0000   386.0000 </r>
       <r>    -3.0507     0.0000   386.0000 </r>
       <r>    -2.9602     0.0000   386.0000 </r>
       <r>    -2.8697     0.0000   386.0000 </r>
       <r>    -2.7792     0.0000   386.0000 </r>
       <r>    -2.6887     0.0000   386.0000 </r>
       <r>    -2.5982     0.0000   386.0000 </r>
       <r>    -2.5077     0.0000   386.0000 </r>
       <r>    -2.4173     0.0000   386.0000 </r>
       <r>    -2.3268     0.0000   386.0000 </r>
       <r>    -2.2363     0.0000   386.0000 </r>
       <r>    -2.1458     0.0000   386.0000 </r>
       <r>    -2.0553     0.0000   386.0000 </r>
       <r>    -1.9648     0.0000   386.0000 </r>
       <r>    -1.8743     0.0000   386.0000 </r>
       <r>    -1.7838     0.0000   386.0000 </r>
       <r>    -1.6933     0.0000   386.0000 </r>
       <r>    -1.6028     0.0000   386.0000 </r>
       <r>    -1.5123     0.0000   386.0000 </r>
       <r>    -1.4218     0.0000   386.0000 </r>
       <r>    -1.3313     0.2724   386.0246 </r>
       <r>    -1.2408    21.8282   388.0000 </r>
       <r>    -1.1503    22.1005   390.0000 </r>
       <r>    -1.0598     0.0000   390.0000 </r>
       <r>    -0.9693     0.0000   390.0000 </r>
       <r>    -0.8788     0.0000   390.0000 </r>
       <r>    -0.7883     0.0000   390.0000 </r>
       <r>    -0.6978     0.0000   390.0000 </r>
       <r>    -0.6073     0.0000   390.0000 </r>
       <r>    -0.5168     0.0000   390.0000 </r>
       <r>    -0.4264     0.0000   390.0000 </r>
       <r>    -0.3359     0.0000   390.0000 </r>
       <r>    -0.2454     0.0000   390.0000 </r>
       <r>    -0.1549     0.0000   390.0000 </r>
       <r>    -0.0644     0.0000   390.0000 </r>
       <r>     0.0261     0.0000   390.0000 </r>
       <r>     0.1166    22.1005   392.0000 </r>
       <r>     0.2071    13.6409   393.2344 </r>
       <r>     0.2976    74.6786   400.7581 </r>
       <r>     0.3881    29.4514   406.6652 </r>
       <r>     0.4786    31.5640   410.8564 </r>
       <r>     0.5691    22.1005   414.0000 </r>
       <r>     0.6596    22.1005   416.0000 </r>
       <r>     0.7501    31.9857   418.8946 </r>
       <r>     0.8406   102.7034   429.2942 </r>
       <r>     0.9311    44.0819   434.0000 </r>
       <r>     1.0216    35.0890   437.1754 </r>
       <r>     1.1121    25.7801   440.3330 </r>
       <r>     1.2026     0.0000   442.0000 </r>
       <r>     1.2931     0.0000   442.0000 </r>
       <r>     1.3836     0.0000   442.0000 </r>
       <r>     1.4741     0.0294   442.0027 </r>
       <r>     1.5646    22.0712   444.0000 </r>
       <r>     1.6550     0.1116   444.0101 </r>
       <r>     1.7455   118.6682   454.7490 </r>
       <r>     1.8360    50.9103   460.6072 </r>
       <r>     1.9265    95.0912   472.6053 </r>
       <r>     2.0170    22.7901   476.0624 </r>
       <r>     2.1075    44.5382   480.0929 </r>
       <r>     2.1980    66.2805   488.0000 </r>
       <r>     2.2885     0.0000   488.0000 </r>
       <r>     2.3790     0.0000   488.0000 </r>
       <r>     2.4695     0.0000   488.0000 </r>
       <r>     2.5600     0.0000   488.0000 </r>
       <r>     2.6505     0.0000   488.0000 </r>
       <r>     2.7410     0.0000   488.0000 </r>
       <r>     2.8315     0.0000   488.0000 </r>
       <r>     2.9220     0.0000   488.0000 </r>
       <r>     3.0125     0.0000   488.0000 </r>
       <r>     3.1030     0.0000   488.0000 </r>
       <r>     3.1935     0.0000   488.0000 </r>
       <r>     3.2840     0.0000   488.0000 </r>
       <r>     3.3745     0.0000   488.0000 </r>
      </set>
     </set>
    </array>
   </total>
  </dos>
 </calculation>
 <structure name="finalpos" >
  <crystal>
   <varray name="basis" >
    <v>      17.59966831       0.00000000       0.00000000 </v>
    <v>      -8.79983416      15.24175986       0.00000000 </v>
    <v>       0.00000000       0.00000000      19.92151445 </v>
   </varray>
   <i name="volume">   5343.94461817 </i>
   <varray name="rec_basis" >
    <v>       0.05681925       0.03280461       0.00000000 </v>
    <v>       0.00000000       0.06560922       0.00000000 </v>
    <v>       0.00000000       0.00000000       0.05019699 </v>
   </varray>
  </crystal>
  <varray name="positions" >
   <v>       0.99943010       0.00005992       0.50000000 </v>
   <v>       0.14164706       0.99871895       0.50000000 </v>
   <v>       0.28492260       0.99841663       0.50000000 </v>
   <v>       0.42850047       0.99871895       0.50000000 </v>
   <v>       0.57205839       0.00005992       0.50000000 </v>
   <v>       0.71530655       0.00214292       0.50000000 </v>
   <v>       0.85826494       0.00214292       0.50000000 </v>
   <v>       0.00080792       0.14408264       0.50000000 </v>
   <v>       0.14259355       0.14244783       0.50000000 </v>
   <v>       0.28470221       0.14112972       0.50000000 </v>
   <v>       0.42785608       0.14112972       0.50000000 </v>
   <v>       0.57128286       0.14244783       0.50000000 </v>
   <v>       0.71470329       0.14408264       0.50000000 </v>
   <v>       0.85805263       0.14467669       0.50000000 </v>
   <v>       0.00095476       0.28713011       0.50000000 </v>
   <v>       0.14372552       0.28645370       0.50000000 </v>
   <v>       0.28540977       0.28469374       0.50000000 </v>
   <v>       0.42724431       0.28306005       0.50000000 </v>
   <v>       0.57071254       0.28469374       0.50000000 </v>
   <v>       0.71415674       0.28645370       0.50000000 </v>
   <v>       0.85760392       0.28713011       0.50000000 </v>
   <v>       0.00054479       0.42966101       0.50000000 </v>
   <v>       0.14422690       0.42957551       0.50000000 </v>
   <v>       0.28730213       0.42918005       0.50000000 </v>
   <v>       0.42797654       0.42569726       0.50000000 </v>
   <v>       0.56914930       0.42569726       0.50000000 </v>
   <v>       0.71330650       0.42918005       0.50000000 </v>
   <v>       0.85677719       0.42957551       0.50000000 </v>
   <v>       0.99928255       0.57181462       0.50000000 </v>
   <v>       0.14396064       0.57181462       0.50000000 </v>
   <v>       0.28862787       0.57181625       0.50000000 </v>
   <v>       0.43313209       0.57215564       0.50000000 </v>
   <v>       0.71045212       0.57215564       0.50000000 </v>
   <v>       0.85461695       0.57181625       0.50000000 </v>
   <v>       0.99707234       0.71370518       0.50000000 </v>
   <v>       0.14255519       0.71368182       0.50000000 </v>
   <v>       0.28806142       0.71370518       0.50000000 </v>
   <v>       0.43464191       0.71382540       0.50000000 </v>
   <v>       0.58510826       0.71626937       0.50000000 </v>
   <v>       0.70258968       0.71626937       0.50000000 </v>
   <v>       0.85061206       0.71382540       0.50000000 </v>
   <v>       0.99777175       0.85613493       0.50000000 </v>
   <v>       0.14160898       0.85591288       0.50000000 </v>
   <v>       0.28573247       0.85591288       0.50000000 </v>
   <v>       0.42979175       0.85613493       0.50000000 </v>
   <v>       0.57342541       0.85758690       0.50000000 </v>
   <v>       0.71640633       0.86138410       0.50000000 </v>
   <v>       0.85559006       0.85758690       0.50000000 </v>
   <v>       0.04754270       0.09547788       0.50000000 </v>
   <v>       0.18957833       0.09405657       0.50000000 </v>
   <v>       0.33254182       0.09365506       0.50000000 </v>
   <v>       0.47590681       0.09405657       0.50000000 </v>
   <v>       0.61936376       0.09547788       0.50000000 </v>
   <v>       0.76280004       0.09719274       0.50000000 </v>
   <v>       0.90582126       0.09719274       0.50000000 </v>
   <v>       0.04854983       0.23934281       0.50000000 </v>
   <v>       0.19048138       0.23782962       0.50000000 </v>
   <v>       0.33234878       0.23634667       0.50000000 </v>
   <v>       0.47542646       0.23634667       0.50000000 </v>
   <v>       0.61877681       0.23782962       0.50000000 </v>
   <v>       0.76222155       0.23934281       0.50000000 </v>
   <v>       0.90562797       0.23982737       0.50000000 </v>
   <v>       0.04871288       0.38232824       0.50000000 </v>
   <v>       0.19188940       0.38184213       0.50000000 </v>
   <v>       0.33352206       0.38013969       0.50000000 </v>
   <v>       0.47472270       0.37801683       0.50000000 </v>
   <v>       0.61804620       0.38013969       0.50000000 </v>
   <v>       0.76138130       0.38184213       0.50000000 </v>
   <v>       0.90504393       0.38232824       0.50000000 </v>
   <v>       0.04810654       0.52478452       0.50000000 </v>
   <v>       0.19263929       0.52476864       0.50000000 </v>
   <v>       0.33696521       0.52455433       0.50000000 </v>
   <v>       0.47833704       0.52146721       0.50000000 </v>
   <v>       0.61455874       0.52146721       0.50000000 </v>
   <v>       0.75901769       0.52455433       0.50000000 </v>
   <v>       0.90355792       0.52476864       0.50000000 </v>
   <v>       0.04642473       0.66685228       0.50000000 </v>
   <v>       0.19185612       0.66685228       0.50000000 </v>
   <v>       0.33777931       0.66688794       0.50000000 </v>
   <v>       0.48615700       0.66710760       0.50000000 </v>
   <v>       0.75237918       0.66710760       0.50000000 </v>
   <v>       0.90053720       0.66688794       0.50000000 </v>
   <v>       0.04582562       0.80879365       0.50000000 </v>
   <v>       0.19009580       0.80876303       0.50000000 </v>
   <v>       0.33439660       0.80879365       0.50000000 </v>
   <v>       0.47844872       0.80897069       0.50000000 </v>
   <v>       0.62209487       0.81129474       0.50000000 </v>
   <v>       0.76062845       0.81129474       0.50000000 </v>
   <v>       0.90195054       0.80897069       0.50000000 </v>
   <v>       0.04629157       0.95154386       0.50000000 </v>
   <v>       0.18948291       0.95169856       0.50000000 </v>
   <v>       0.33307603       0.95113037       0.50000000 </v>
   <v>       0.47668087       0.95154386       0.50000000 </v>
   <v>       0.62015751       0.95313740       0.50000000 </v>
   <v>       0.76355772       0.95568687       0.50000000 </v>
   <v>       0.90440847       0.95313740       0.50000000 </v>
   <v>       0.56830873       0.56518888       0.50000000 </v>
  </varray>
 </structure>
</modeling>
