<?xml version="1.0" encoding="ISO-8859-1"?>
<modeling>
 <generator>
  <i name="program" type="string">vasp </i>
  <i name="version" type="string">5.4.4.18Apr17-6-g9f103f2a35  </i>
  <i name="subversion" type="string">(build Oct 18 2020 22:16:12) gamma-only         parallel </i>
  <i name="platform" type="string">UA-vaughan-2020a </i>
  <i name="date" type="string">2023 03 22 </i>
  <i name="time" type="string">00:30:15 </i>
 </generator>
 <incar>
  <i type="string" name="PREC">accurate</i>
  <i type="int" name="IALGO">    38</i>
  <i type="logical" name="ADDGRID"> T  </i>
  <i type="int" name="NELMIN">     5</i>
  <i type="int" name="IBRION">    -1</i>
  <i name="EDIFF">      0.00000001</i>
  <i name="EDIFFG">     -0.00000001</i>
  <i type="int" name="NSW">     0</i>
  <i type="int" name="ISIF">     2</i>
  <i name="ENCUT">    500.00000000</i>
  <i type="logical" name="LREAL"> F  </i>
  <i type="int" name="ISMEAR">     0</i>
  <i name="SIGMA">      0.01000000</i>
  <i type="logical" name="LWAVE"> F  </i>
  <i type="logical" name="LCHARG"> F  </i>
  <v type="int" name="KPOINT_BSE">    -1     0     0     0</v>
 </incar>
 <structure name="primitive_cell" >
  <crystal>
   <varray name="basis" >
    <v>      17.59966831       0.00000000       0.00000000 </v>
    <v>      -8.79983416      15.24175986       0.00000000 </v>
    <v>       0.00000000       0.00000000      19.92151445 </v>
   </varray>
   <i name="volume">   5343.94461817 </i>
   <varray name="rec_basis" >
    <v>       0.05681925       0.03280461       0.00000000 </v>
    <v>       0.00000000       0.06560922       0.00000000 </v>
    <v>       0.00000000       0.00000000       0.05019699 </v>
   </varray>
  </crystal>
  <varray name="positions" >
   <v>      -0.00056990       0.00005992      -0.50000000 </v>
   <v>      -0.09559153      -0.04686260      -0.50000000 </v>
   <v>       0.04629157      -0.04845614      -0.50000000 </v>
   <v>       0.04754270       0.09547788      -0.50000000 </v>
   <v>      -0.14173506       0.00214292      -0.50000000 </v>
   <v>       0.14259355       0.14244783      -0.50000000 </v>
   <v>       0.14164706      -0.00128105      -0.50000000 </v>
   <v>      -0.00222825      -0.14386507      -0.50000000 </v>
   <v>      -0.14440994      -0.14241310      -0.50000000 </v>
   <v>       0.00080792       0.14408264      -0.50000000 </v>
   <v>       0.18957833       0.09405657      -0.50000000 </v>
   <v>      -0.09417874       0.09719274      -0.50000000 </v>
   <v>      -0.09804946      -0.19102931      -0.50000000 </v>
   <v>      -0.23644228      -0.04431313      -0.50000000 </v>
   <v>      -0.23937155      -0.18870526      -0.50000000 </v>
   <v>       0.19048138       0.23782962      -0.50000000 </v>
   <v>       0.04582562      -0.19120635      -0.50000000 </v>
   <v>       0.18948291      -0.04886963      -0.50000000 </v>
   <v>       0.04854983       0.23934281      -0.50000000 </v>
   <v>      -0.28359367      -0.13861590      -0.50000000 </v>
   <v>       0.28470221       0.14112972      -0.50000000 </v>
   <v>      -0.14194737       0.14467669      -0.50000000 </v>
   <v>      -0.14938794      -0.28617460      -0.50000000 </v>
   <v>       0.14160898      -0.14408712      -0.50000000 </v>
   <v>       0.14372552       0.28645370      -0.50000000 </v>
   <v>      -0.28469345       0.00214292      -0.50000000 </v>
   <v>      -0.00292766      -0.28629482      -0.50000000 </v>
   <v>       0.28540977       0.28469374      -0.50000000 </v>
   <v>       0.00095476       0.28713011      -0.50000000 </v>
   <v>       0.28492260      -0.00158337      -0.50000000 </v>
   <v>      -0.29741032      -0.28373063      -0.50000000 </v>
   <v>      -0.09946280      -0.33311206      -0.50000000 </v>
   <v>       0.33234878       0.23634667      -0.50000000 </v>
   <v>      -0.23719996       0.09719274      -0.50000000 </v>
   <v>       0.33254182       0.09365506      -0.50000000 </v>
   <v>      -0.09437203       0.23982737      -0.50000000 </v>
   <v>      -0.24762082      -0.33289240      -0.50000000 </v>
   <v>      -0.37790513      -0.18870526      -0.50000000 </v>
   <v>       0.19188940       0.38184213      -0.50000000 </v>
   <v>       0.19009580      -0.19123697      -0.50000000 </v>
   <v>      -0.37984249      -0.04686260      -0.50000000 </v>
   <v>       0.04642473      -0.33257953      -0.50000000 </v>
   <v>       0.33352206       0.38013969      -0.50000000 </v>
   <v>       0.04871288       0.38232824      -0.50000000 </v>
   <v>       0.33307603      -0.04886963      -0.50000000 </v>
   <v>      -0.41489174      -0.28373063      -0.50000000 </v>
   <v>      -0.42657459      -0.14241310      -0.50000000 </v>
   <v>       0.42724431       0.28306005      -0.50000000 </v>
   <v>      -0.14538305      -0.42818375      -0.50000000 </v>
   <v>      -0.28529671       0.14408264      -0.50000000 </v>
   <v>      -0.28954788      -0.42784436      -0.50000000 </v>
   <v>       0.42785608       0.14112972      -0.50000000 </v>
   <v>      -0.14239608       0.28713011      -0.50000000 </v>
   <v>       0.14422690       0.42957551      -0.50000000 </v>
   <v>       0.28730213       0.42918005      -0.50000000 </v>
   <v>       0.14255519      -0.28631818      -0.50000000 </v>
   <v>       0.28573247      -0.14408712      -0.50000000 </v>
   <v>      -0.24098231      -0.47544567      -0.50000000 </v>
   <v>       0.47542646       0.23634667      -0.50000000 </v>
   <v>      -0.23777845       0.23934281      -0.50000000 </v>
   <v>       0.42797654       0.42569726      -0.50000000 </v>
   <v>      -0.42794161       0.00005992      -0.50000000 </v>
   <v>      -0.00071745      -0.42818538      -0.50000000 </v>
   <v>       0.00054479       0.42966101      -0.50000000 </v>
   <v>       0.42850047      -0.00128105      -0.50000000 </v>
   <v>      -0.43169127      -0.43481112      -0.50000000 </v>
   <v>       0.47472270       0.37801683      -0.50000000 </v>
   <v>      -0.09644208      -0.47523136      -0.50000000 </v>
   <v>      -0.38063624       0.09547788      -0.50000000 </v>
   <v>       0.47590681       0.09405657      -0.50000000 </v>
   <v>      -0.09495607       0.38232824      -0.50000000 </v>
   <v>      -0.38544126      -0.47853279      -0.50000000 </v>
   <v>       0.48615700      -0.33289240      -0.50000000 </v>
   <v>       0.47844872      -0.19102931      -0.50000000 </v>
   <v>       0.19263929      -0.47523136      -0.50000000 </v>
   <v>       0.33696521      -0.47544567      -0.50000000 </v>
   <v>       0.19185612      -0.33314772      -0.50000000 </v>
   <v>       0.33439660      -0.19120635      -0.50000000 </v>
   <v>       0.43464191      -0.28617460      -0.50000000 </v>
   <v>      -0.28669350       0.42918005      -0.50000000 </v>
   <v>      -0.42928746       0.28469374      -0.50000000 </v>
   <v>      -0.28584326       0.28645370      -0.50000000 </v>
   <v>       0.28862787      -0.42818375      -0.50000000 </v>
   <v>       0.28806142      -0.28629482      -0.50000000 </v>
   <v>       0.47668087      -0.04845614      -0.50000000 </v>
   <v>       0.47833704      -0.47853279      -0.50000000 </v>
   <v>       0.04810654      -0.47521548      -0.50000000 </v>
   <v>       0.43313209      -0.42784436      -0.50000000 </v>
   <v>       0.42979175      -0.14386507      -0.50000000 </v>
   <v>      -0.43085070       0.42569726      -0.50000000 </v>
   <v>      -0.14322281       0.42957551      -0.50000000 </v>
   <v>      -0.42871714       0.14244783      -0.50000000 </v>
   <v>       0.14396064      -0.42818538      -0.50000000 </v>
   <v>      -0.23861870       0.38184213      -0.50000000 </v>
   <v>      -0.38122319       0.23782962      -0.50000000 </v>
   <v>      -0.38195380       0.38013969      -0.50000000 </v>
   <v>       0.33777931      -0.33311206      -0.50000000 </v>
  </varray>
 </structure>
 <varray name="primitive_index" >
  <v type="int" >        1 </v>
  <v type="int" >       96 </v>
  <v type="int" >       90 </v>
  <v type="int" >       49 </v>
  <v type="int" >        7 </v>
  <v type="int" >        9 </v>
  <v type="int" >        2 </v>
  <v type="int" >       42 </v>
  <v type="int" >       48 </v>
  <v type="int" >        8 </v>
  <v type="int" >       50 </v>
  <v type="int" >       55 </v>
  <v type="int" >       89 </v>
  <v type="int" >       95 </v>
  <v type="int" >       88 </v>
  <v type="int" >       57 </v>
  <v type="int" >       83 </v>
  <v type="int" >       91 </v>
  <v type="int" >       56 </v>
  <v type="int" >       47 </v>
  <v type="int" >       10 </v>
  <v type="int" >       14 </v>
  <v type="int" >       41 </v>
  <v type="int" >       43 </v>
  <v type="int" >       16 </v>
  <v type="int" >        6 </v>
  <v type="int" >       35 </v>
  <v type="int" >       17 </v>
  <v type="int" >       15 </v>
  <v type="int" >        3 </v>
  <v type="int" >       40 </v>
  <v type="int" >       82 </v>
  <v type="int" >       58 </v>
  <v type="int" >       54 </v>
  <v type="int" >       51 </v>
  <v type="int" >       62 </v>
  <v type="int" >       81 </v>
  <v type="int" >       87 </v>
  <v type="int" >       64 </v>
  <v type="int" >       84 </v>
  <v type="int" >       94 </v>
  <v type="int" >       77 </v>
  <v type="int" >       65 </v>
  <v type="int" >       63 </v>
  <v type="int" >       92 </v>
  <v type="int" >       39 </v>
  <v type="int" >       46 </v>
  <v type="int" >       18 </v>
  <v type="int" >       34 </v>
  <v type="int" >       13 </v>
  <v type="int" >       33 </v>
  <v type="int" >       11 </v>
  <v type="int" >       21 </v>
  <v type="int" >       23 </v>
  <v type="int" >       24 </v>
  <v type="int" >       36 </v>
  <v type="int" >       44 </v>
  <v type="int" >       75 </v>
  <v type="int" >       59 </v>
  <v type="int" >       61 </v>
  <v type="int" >       25 </v>
  <v type="int" >        5 </v>
  <v type="int" >       29 </v>
  <v type="int" >       22 </v>
  <v type="int" >        4 </v>
  <v type="int" >       97 </v>
  <v type="int" >       66 </v>
  <v type="int" >       76 </v>
  <v type="int" >       53 </v>
  <v type="int" >       52 </v>
  <v type="int" >       69 </v>
  <v type="int" >       74 </v>
  <v type="int" >       80 </v>
  <v type="int" >       86 </v>
  <v type="int" >       71 </v>
  <v type="int" >       72 </v>
  <v type="int" >       78 </v>
  <v type="int" >       85 </v>
  <v type="int" >       38 </v>
  <v type="int" >       27 </v>
  <v type="int" >       19 </v>
  <v type="int" >       20 </v>
  <v type="int" >       31 </v>
  <v type="int" >       37 </v>
  <v type="int" >       93 </v>
  <v type="int" >       73 </v>
  <v type="int" >       70 </v>
  <v type="int" >       32 </v>
  <v type="int" >       45 </v>
  <v type="int" >       26 </v>
  <v type="int" >       28 </v>
  <v type="int" >       12 </v>
  <v type="int" >       30 </v>
  <v type="int" >       68 </v>
  <v type="int" >       60 </v>
  <v type="int" >       67 </v>
  <v type="int" >       79 </v>
 </varray>
 <kpoints>
  <generation param="Gamma">
   <v type="int" name="divisions">       1        1        1 </v>
   <v name="usershift">      0.00000000       0.00000000       0.00000000 </v>
   <v name="genvec1">      1.00000000      -0.00000000       0.00000000 </v>
   <v name="genvec2">      0.00000000       1.00000000       0.00000000 </v>
   <v name="genvec3">      0.00000000       0.00000000       1.00000000 </v>
   <v name="shift">      0.00000000       0.00000000       0.00000000 </v>
  </generation>
  <varray name="kpointlist" >
   <v>       0.00000000       0.00000000       0.00000000 </v>
  </varray>
  <varray name="weights" >
   <v>       1.00000000 </v>
  </varray>
 </kpoints>
 <parameters>
  <separator name="general" >
   <i type="string" name="SYSTEM">unknown system</i>
   <i type="logical" name="LCOMPAT"> F  </i>
  </separator>
  <separator name="electronic" >
   <i type="string" name="PREC">accura</i>
   <i name="ENMAX">    500.00000000</i>
   <i name="ENAUG">    644.87300000</i>
   <i name="EDIFF">      0.00000001</i>
   <i type="int" name="IALGO">    38</i>
   <i type="int" name="IWAVPR">    10</i>
   <i type="int" name="NBANDS">   244</i>
   <i name="NELECT">    388.00000000</i>
   <i type="int" name="TURBO">     0</i>
   <i type="int" name="IRESTART">     0</i>
   <i type="int" name="NREBOOT">     0</i>
   <i type="int" name="NMIN">     0</i>
   <i name="EREF">      0.00000000</i>
   <separator name="electronic smearing" >
    <i type="int" name="ISMEAR">     0</i>
    <i name="SIGMA">      0.01000000</i>
    <i name="KSPACING">      0.50000000</i>
    <i type="logical" name="KGAMMA"> T  </i>
   </separator>
   <separator name="electronic projectors" >
    <i type="logical" name="LREAL"> F  </i>
    <v name="ROPT">      0.00000000      0.00000000      0.00000000</v>
    <i type="int" name="LMAXPAW">  -100</i>
    <i type="int" name="LMAXMIX">     2</i>
    <i type="logical" name="NLSPLINE"> F  </i>
   </separator>
   <separator name="electronic startup" >
    <i type="int" name="ISTART">     0</i>
    <i type="int" name="ICHARG">     2</i>
    <i type="int" name="INIWAV">     1</i>
   </separator>
   <separator name="electronic spin" >
    <i type="int" name="ISPIN">     1</i>
    <i type="logical" name="LNONCOLLINEAR"> F  </i>
    <v name="MAGMOM">      1.00000000      1.00000000      1.00000000      1.00000000      1.00000000      1.00000000      1.00000000      1.00000000      1.00000000      1.00000000      1.00000000      1.00000000      1.00000000      1.00000000      1.00000000      1.00000000      1.00000000      1.00000000      1.00000000      1.00000000
      1.00000000      1.00000000      1.00000000      1.00000000      1.00000000      1.00000000      1.00000000      1.00000000      1.00000000      1.00000000      1.00000000      1.00000000      1.00000000      1.00000000      1.00000000      1.00000000      1.00000000      1.00000000      1.00000000      1.00000000
      1.00000000      1.00000000      1.00000000      1.00000000      1.00000000      1.00000000      1.00000000      1.00000000      1.00000000      1.00000000      1.00000000      1.00000000      1.00000000      1.00000000      1.00000000      1.00000000      1.00000000      1.00000000      1.00000000      1.00000000
      1.00000000      1.00000000      1.00000000      1.00000000      1.00000000      1.00000000      1.00000000      1.00000000      1.00000000      1.00000000      1.00000000      1.00000000      1.00000000      1.00000000      1.00000000      1.00000000      1.00000000      1.00000000      1.00000000      1.00000000
      1.00000000      1.00000000      1.00000000      1.00000000      1.00000000      1.00000000      1.00000000      1.00000000      1.00000000      1.00000000      1.00000000      1.00000000      1.00000000      1.00000000      1.00000000      1.00000000      1.00000000</v>
    <i name="NUPDOWN">     -1.00000000</i>
    <i type="logical" name="LSORBIT"> F  </i>
    <v name="SAXIS">      0.00000000      0.00000000      1.00000000</v>
    <i type="logical" name="LSPIRAL"> F  </i>
    <v name="QSPIRAL">      0.00000000      0.00000000      0.00000000</v>
    <i type="logical" name="LZEROZ"> F  </i>
   </separator>
   <separator name="electronic exchange-correlation" >
    <i type="logical" name="LASPH"> F  </i>
    <i type="logical" name="LMETAGGA"> F  </i>
   </separator>
   <separator name="electronic convergence" >
    <i type="int" name="NELM">    60</i>
    <i type="int" name="NELMDL">    -5</i>
    <i type="int" name="NELMIN">     5</i>
    <i name="ENINI">    500.00000000</i>
    <separator name="electronic convergence detail" >
     <i type="logical" name="LDIAG"> T  </i>
     <i type="logical" name="LSUBROT"> F  </i>
     <i name="WEIMIN">      0.00000000</i>
     <i name="EBREAK">      0.00000000</i>
     <i name="DEPER">      0.30000000</i>
     <i type="int" name="NRMM">     4</i>
     <i name="TIME">      0.40000000</i>
    </separator>
   </separator>
   <separator name="electronic mixer" >
    <i name="AMIX">      0.40000000</i>
    <i name="BMIX">      1.00000000</i>
    <i name="AMIN">      0.10000000</i>
    <i name="AMIX_MAG">      1.60000000</i>
    <i name="BMIX_MAG">      1.00000000</i>
    <separator name="electronic mixer details" >
     <i type="int" name="IMIX">     4</i>
     <i type="logical" name="MIXFIRST"> F  </i>
     <i type="int" name="MAXMIX">   -45</i>
     <i name="WC">    100.00000000</i>
     <i type="int" name="INIMIX">     1</i>
     <i type="int" name="MIXPRE">     1</i>
     <i type="int" name="MREMOVE">     5</i>
    </separator>
   </separator>
   <separator name="electronic dipolcorrection" >
    <i type="logical" name="LDIPOL"> F  </i>
    <i type="logical" name="LMONO"> F  </i>
    <i type="int" name="IDIPOL">     0</i>
    <i name="EPSILON">      1.00000000</i>
    <v name="DIPOL">   -100.00000000   -100.00000000   -100.00000000</v>
    <i name="EFIELD">      0.00000000</i>
   </separator>
  </separator>
  <separator name="grids" >
   <i type="int" name="NGX">   128</i>
   <i type="int" name="NGY">   128</i>
   <i type="int" name="NGZ">   150</i>
   <i type="int" name="NGXF">   256</i>
   <i type="int" name="NGYF">   256</i>
   <i type="int" name="NGZF">   300</i>
   <i type="logical" name="ADDGRID"> T  </i>
  </separator>
  <separator name="ionic" >
   <i type="int" name="NSW">     0</i>
   <i type="int" name="IBRION">    -1</i>
   <i type="int" name="MDALGO">     0</i>
   <i type="int" name="ISIF">     2</i>
   <i name="PSTRESS">      0.00000000</i>
   <i name="EDIFFG">     -0.00000001</i>
   <i type="int" name="NFREE">     0</i>
   <i name="POTIM">      0.50000000</i>
   <i name="SMASS">     -3.00000000</i>
   <i name="SCALEE">      1.00000000</i>
  </separator>
  <separator name="ionic md" >
   <i name="TEBEG">      0.00010000</i>
   <i name="TEEND">      0.00010000</i>
   <i type="int" name="NBLOCK">     1</i>
   <i type="int" name="KBLOCK">     1</i>
   <i type="int" name="NPACO">   256</i>
   <i name="APACO">     16.00000000</i>
  </separator>
  <separator name="symmetry" >
   <i type="int" name="ISYM">     2</i>
   <i name="SYMPREC">      0.00001000</i>
  </separator>
  <separator name="dos" >
   <i type="int" name="LORBIT">     0</i>
   <v name="RWIGS">     -1.00000000     -1.00000000     -1.00000000</v>
   <i type="int" name="NEDOS">   301</i>
   <i name="EMIN">     10.00000000</i>
   <i name="EMAX">    -10.00000000</i>
   <i name="EFERMI">      0.00000000</i>
  </separator>
  <separator name="writing" >
   <i type="int" name="NWRITE">     2</i>
   <i type="logical" name="LWAVE"> F  </i>
   <i type="logical" name="LDOWNSAMPLE"> F  </i>
   <i type="logical" name="LCHARG"> F  </i>
   <i type="logical" name="LPARD"> F  </i>
   <i type="logical" name="LVTOT"> F  </i>
   <i type="logical" name="LVHAR"> F  </i>
   <i type="logical" name="LELF"> F  </i>
   <i type="logical" name="LOPTICS"> F  </i>
   <v name="STM">      0.00000000      0.00000000      0.00000000      0.00000000      0.00000000      0.00000000      0.00000000</v>
  </separator>
  <separator name="performance" >
   <i type="int" name="NPAR">     4</i>
   <i type="int" name="NSIM">     4</i>
   <i type="int" name="NBLK">    -1</i>
   <i type="logical" name="LPLANE"> T  </i>
   <i type="logical" name="LSCALAPACK"> T  </i>
   <i type="logical" name="LSCAAWARE"> F  </i>
   <i type="logical" name="LSCALU"> F  </i>
   <i type="logical" name="LASYNC"> F  </i>
   <i type="logical" name="LORBITALREAL"> F  </i>
  </separator>
  <separator name="miscellaneous" >
   <i type="int" name="IDIOT">     3</i>
   <i type="int" name="ISPECIAL">     0</i>
   <i type="logical" name="LMUSIC"> F  </i>
   <v name="POMASS">     10.81100000     14.00100000     12.01100000</v>
   <v name="DARWINR">      0.00000000      0.00000000      0.00000000</v>
   <v name="DARWINV">      1.00000000      1.00000000      1.00000000</v>
   <i type="logical" name="LCORR"> T  </i>
  </separator>
  <i type="logical" name="GGA_COMPAT"> T  </i>
  <i type="logical" name="LBERRY"> F  </i>
  <i type="int" name="ICORELEVEL">     0</i>
  <i type="logical" name="LDAU"> F  </i>
  <i type="int" name="I_CONSTRAINED_M">     0</i>
  <separator name="electronic exchange-correlation" >
   <i type="string" name="GGA">--</i>
   <i type="int" name="VOSKOWN">     0</i>
   <i type="logical" name="LHFCALC"> F  </i>
   <i type="string" name="PRECFOCK"></i>
   <i type="logical" name="LSYMGRAD"> F  </i>
   <i type="logical" name="LHFONE"> F  </i>
   <i type="logical" name="LRHFCALC"> F  </i>
   <i type="logical" name="LTHOMAS"> F  </i>
   <i type="logical" name="LMODELHF"> F  </i>
   <i name="ENCUT4O">     -1.00000000</i>
   <i type="int" name="EXXOEP">     0</i>
   <i type="int" name="FOURORBIT">     0</i>
   <i name="AEXX">      0.00000000</i>
   <i name="HFALPHA">      0.00000000</i>
   <i name="MCALPHA">      0.00000000</i>
   <i name="ALDAX">      1.00000000</i>
   <i name="AGGAX">      1.00000000</i>
   <i name="ALDAC">      1.00000000</i>
   <i name="AGGAC">      1.00000000</i>
   <i type="int" name="NKREDX">     1</i>
   <i type="int" name="NKREDY">     1</i>
   <i type="int" name="NKREDZ">     1</i>
   <i type="logical" name="SHIFTRED"> F  </i>
   <i type="logical" name="ODDONLY"> F  </i>
   <i type="logical" name="EVENONLY"> F  </i>
   <i type="int" name="LMAXFOCK">     0</i>
   <i type="int" name="NMAXFOCKAE">     0</i>
   <i type="logical" name="LFOCKAEDFT"> F  </i>
   <i name="HFSCREEN">      0.00000000</i>
   <i name="HFSCREENC">      0.00000000</i>
   <i type="int" name="NBANDSGWLOW">     0</i>
  </separator>
  <separator name="vdW DFT" >
   <i type="logical" name="LUSE_VDW"> F  </i>
   <i name="Zab_VDW">     -0.84910000</i>
   <i name="PARAM1">      0.12340000</i>
   <i name="PARAM2">      1.00000000</i>
   <i name="PARAM3">      0.00000000</i>
  </separator>
  <separator name="model GW" >
   <i type="int" name="MODEL_GW">     0</i>
   <i name="MODEL_EPS0">     33.05532754</i>
   <i name="MODEL_ALPHA">      1.00000000</i>
  </separator>
  <separator name="linear response parameters" >
   <i type="logical" name="LEPSILON"> F  </i>
   <i type="logical" name="LRPA"> F  </i>
   <i type="logical" name="LNABLA"> F  </i>
   <i type="logical" name="LVEL"> F  </i>
   <i type="int" name="KINTER">     0</i>
   <i name="CSHIFT">      0.10000000</i>
   <i name="OMEGAMAX">     -1.00000000</i>
   <i name="DEG_THRESHOLD">      0.00200000</i>
   <i name="RTIME">     -0.10000000</i>
   <i name="WPLASMAI">      0.00000000</i>
   <v name="DFIELD">      0.00000000      0.00000000      0.00000000</v>
   <v name="WPLASMA">      0.00000000      0.00000000      0.00000000      0.00000000      0.00000000      0.00000000      0.00000000      0.00000000      0.00000000</v>
  </separator>
  <separator name="orbital magnetization" >
   <i type="logical" name="NUCIND"> F  </i>
   <v name="MAGPOS">      0.00000000      0.00000000      0.00000000</v>
   <i type="logical" name="LNICSALL"> T  </i>
   <i type="logical" name="ORBITALMAG"> F  </i>
   <i type="logical" name="LMAGBLOCH"> F  </i>
   <i type="logical" name="LCHIMAG"> F  </i>
   <i type="logical" name="LGAUGE"> T  </i>
   <i type="int" name="MAGATOM">     0</i>
   <v name="MAGDIPOL">      0.00000000      0.00000000      0.00000000</v>
   <v name="AVECCONST">      0.00000000      0.00000000      0.00000000</v>
  </separator>
  <separator name="response functions" >
   <i type="logical" name="LADDER"> F  </i>
   <i type="logical" name="LRPAFORCE"> F  </i>
   <i type="logical" name="LFXC"> F  </i>
   <i type="logical" name="LHARTREE"> T  </i>
   <i type="int" name="IBSE">     0</i>
   <v type="int" name="KPOINT">    -1     0     0     0</v>
   <i type="logical" name="LTCTE"> F  </i>
   <i type="logical" name="LTETE"> F  </i>
   <i type="logical" name="LTRIPLET"> F  </i>
   <i type="logical" name="LFXCEPS"> F  </i>
   <i type="logical" name="LFXHEG"> F  </i>
   <i type="int" name="NATURALO">     2</i>
   <i type="logical" name="L2ORDER"> F  </i>
   <i type="logical" name="LMP2LT"> F  </i>
   <i type="logical" name="LUSEW"> F  </i>
   <i name="ENCUTGW">     -2.00000000</i>
   <i name="ENCUTGWSOFT">     -2.00000000</i>
   <i name="ENCUTLF">     -1.00000000</i>
   <i type="int" name="LMAXMP2">    -1</i>
   <i name="SCISSOR">      0.00000000</i>
   <i type="int" name="NOMEGA">     0</i>
   <i type="int" name="NOMEGAR">     0</i>
   <i type="int" name="NBANDSGW">    -1</i>
   <i type="int" name="NBANDSO">    -1</i>
   <i type="int" name="NBANDSV">    -1</i>
   <i type="int" name="NELM">     1</i>
   <i type="int" name="NELMHF">     1</i>
   <i type="int" name="DIM">     3</i>
   <i type="int" name="ANTIRES">     0</i>
   <i name="OMEGAMAX">    -30.00000000</i>
   <i name="OMEGAMIN">    -30.00000000</i>
   <i name="OMEGATL">   -200.00000000</i>
   <i type="int" name="OMEGAGRID">   140</i>
   <i name="CSHIFT">     -0.10000000</i>
   <i type="logical" name="SELFENERGY"> F  </i>
   <i type="logical" name="LSPECTRAL"> F  </i>
   <i type="logical" name="LSPECTRALGW"> F  </i>
   <i type="logical" name="LSINGLES"> F  </i>
   <i type="logical" name="LFERMIGW"> F  </i>
   <i type="logical" name="ODDONLYGW"> F  </i>
   <i type="logical" name="EVENONLYGW"> F  </i>
   <i type="int" name="NKREDLFX">     1</i>
   <i type="int" name="NKREDLFY">     1</i>
   <i type="int" name="NKREDLFZ">     1</i>
   <i type="int" name="MAXMEM">  2800</i>
   <i type="int" name="TELESCOPE">     0</i>
   <i type="int" name="TAUPAR">     1</i>
   <i type="int" name="OMEGAPAR">    -1</i>
   <i name="LAMBDA">      1.00000000</i>
  </separator>
  <separator name="External order field" >
   <i name="OFIELD_KAPPA">      0.00000000</i>
   <v name="OFIELD_K">      0.00000000      0.00000000      0.00000000</v>
   <i name="OFIELD_Q6_NEAR">      0.00000000</i>
   <i name="OFIELD_Q6_FAR">      0.00000000</i>
   <i name="OFIELD_A">      0.00000000</i>
  </separator>
 </parameters>
 <atominfo>
  <atoms>      97 </atoms>
  <types>       3 </types>
  <array name="atoms" >
   <dimension dim="1">ion</dimension>
   <field type="string">element</field>
   <field type="int">atomtype</field>
   <set>
    <rc><c>B </c><c>   1</c></rc>
    <rc><c>B </c><c>   1</c></rc>
    <rc><c>B </c><c>   1</c></rc>
    <rc><c>B </c><c>   1</c></rc>
    <rc><c>B </c><c>   1</c></rc>
    <rc><c>B </c><c>   1</c></rc>
    <rc><c>B </c><c>   1</c></rc>
    <rc><c>B </c><c>   1</c></rc>
    <rc><c>B </c><c>   1</c></rc>
    <rc><c>B </c><c>   1</c></rc>
    <rc><c>B </c><c>   1</c></rc>
    <rc><c>B </c><c>   1</c></rc>
    <rc><c>B </c><c>   1</c></rc>
    <rc><c>B </c><c>   1</c></rc>
    <rc><c>B </c><c>   1</c></rc>
    <rc><c>B </c><c>   1</c></rc>
    <rc><c>B </c><c>   1</c></rc>
    <rc><c>B </c><c>   1</c></rc>
    <rc><c>B </c><c>   1</c></rc>
    <rc><c>B </c><c>   1</c></rc>
    <rc><c>B </c><c>   1</c></rc>
    <rc><c>B </c><c>   1</c></rc>
    <rc><c>B </c><c>   1</c></rc>
    <rc><c>B </c><c>   1</c></rc>
    <rc><c>B </c><c>   1</c></rc>
    <rc><c>B </c><c>   1</c></rc>
    <rc><c>B </c><c>   1</c></rc>
    <rc><c>B </c><c>   1</c></rc>
    <rc><c>B </c><c>   1</c></rc>
    <rc><c>B </c><c>   1</c></rc>
    <rc><c>B </c><c>   1</c></rc>
    <rc><c>B </c><c>   1</c></rc>
    <rc><c>B </c><c>   1</c></rc>
    <rc><c>B </c><c>   1</c></rc>
    <rc><c>B </c><c>   1</c></rc>
    <rc><c>B </c><c>   1</c></rc>
    <rc><c>B </c><c>   1</c></rc>
    <rc><c>B </c><c>   1</c></rc>
    <rc><c>B </c><c>   1</c></rc>
    <rc><c>B </c><c>   1</c></rc>
    <rc><c>B </c><c>   1</c></rc>
    <rc><c>B </c><c>   1</c></rc>
    <rc><c>B </c><c>   1</c></rc>
    <rc><c>B </c><c>   1</c></rc>
    <rc><c>B </c><c>   1</c></rc>
    <rc><c>B </c><c>   1</c></rc>
    <rc><c>B </c><c>   1</c></rc>
    <rc><c>B </c><c>   1</c></rc>
    <rc><c>N </c><c>   2</c></rc>
    <rc><c>N </c><c>   2</c></rc>
    <rc><c>N </c><c>   2</c></rc>
    <rc><c>N </c><c>   2</c></rc>
    <rc><c>N </c><c>   2</c></rc>
    <rc><c>N </c><c>   2</c></rc>
    <rc><c>N </c><c>   2</c></rc>
    <rc><c>N </c><c>   2</c></rc>
    <rc><c>N </c><c>   2</c></rc>
    <rc><c>N </c><c>   2</c></rc>
    <rc><c>N </c><c>   2</c></rc>
    <rc><c>N </c><c>   2</c></rc>
    <rc><c>N </c><c>   2</c></rc>
    <rc><c>N </c><c>   2</c></rc>
    <rc><c>N </c><c>   2</c></rc>
    <rc><c>N </c><c>   2</c></rc>
    <rc><c>N </c><c>   2</c></rc>
    <rc><c>N </c><c>   2</c></rc>
    <rc><c>N </c><c>   2</c></rc>
    <rc><c>N </c><c>   2</c></rc>
    <rc><c>N </c><c>   2</c></rc>
    <rc><c>N </c><c>   2</c></rc>
    <rc><c>N </c><c>   2</c></rc>
    <rc><c>N </c><c>   2</c></rc>
    <rc><c>N </c><c>   2</c></rc>
    <rc><c>N </c><c>   2</c></rc>
    <rc><c>N </c><c>   2</c></rc>
    <rc><c>N </c><c>   2</c></rc>
    <rc><c>N </c><c>   2</c></rc>
    <rc><c>N </c><c>   2</c></rc>
    <rc><c>N </c><c>   2</c></rc>
    <rc><c>N </c><c>   2</c></rc>
    <rc><c>N </c><c>   2</c></rc>
    <rc><c>N </c><c>   2</c></rc>
    <rc><c>N </c><c>   2</c></rc>
    <rc><c>N </c><c>   2</c></rc>
    <rc><c>N </c><c>   2</c></rc>
    <rc><c>N </c><c>   2</c></rc>
    <rc><c>N </c><c>   2</c></rc>
    <rc><c>N </c><c>   2</c></rc>
    <rc><c>N </c><c>   2</c></rc>
    <rc><c>N </c><c>   2</c></rc>
    <rc><c>N </c><c>   2</c></rc>
    <rc><c>N </c><c>   2</c></rc>
    <rc><c>N </c><c>   2</c></rc>
    <rc><c>N </c><c>   2</c></rc>
    <rc><c>N </c><c>   2</c></rc>
    <rc><c>N </c><c>   2</c></rc>
    <rc><c>C </c><c>   3</c></rc>
   </set>
  </array>
  <array name="atomtypes" >
   <dimension dim="1">type</dimension>
   <field type="int">atomspertype</field>
   <field type="string">element</field>
   <field>mass</field>
   <field>valence</field>
   <field type="string">pseudopotential</field>
   <set>
    <rc><c>  48</c><c>B </c><c>     10.81100000</c><c>      3.00000000</c><c>  PAW_PBE B 06Sep2000                   </c></rc>
    <rc><c>  48</c><c>N </c><c>     14.00100000</c><c>      5.00000000</c><c>  PAW_PBE N 08Apr2002                   </c></rc>
    <rc><c>   1</c><c>C </c><c>     12.01100000</c><c>      4.00000000</c><c>  PAW_PBE C 08Apr2002                   </c></rc>
   </set>
  </array>
 </atominfo>
 <structure name="initialpos" >
  <crystal>
   <varray name="basis" >
    <v>      17.59966831       0.00000000       0.00000000 </v>
    <v>      -8.79983416      15.24175986       0.00000000 </v>
    <v>       0.00000000       0.00000000      19.92151445 </v>
   </varray>
   <i name="volume">   5343.94461817 </i>
   <varray name="rec_basis" >
    <v>       0.05681925       0.03280461       0.00000000 </v>
    <v>       0.00000000       0.06560922       0.00000000 </v>
    <v>       0.00000000       0.00000000       0.05019699 </v>
   </varray>
  </crystal>
  <varray name="positions" >
   <v>       0.99943010       0.00005992       0.50000000 </v>
   <v>       0.14164706       0.99871895       0.50000000 </v>
   <v>       0.28492260       0.99841663       0.50000000 </v>
   <v>       0.42850047       0.99871895       0.50000000 </v>
   <v>       0.57205839       0.00005992       0.50000000 </v>
   <v>       0.71530655       0.00214292       0.50000000 </v>
   <v>       0.85826494       0.00214292       0.50000000 </v>
   <v>       0.00080792       0.14408264       0.50000000 </v>
   <v>       0.14259355       0.14244783       0.50000000 </v>
   <v>       0.28470221       0.14112972       0.50000000 </v>
   <v>       0.42785608       0.14112972       0.50000000 </v>
   <v>       0.57128286       0.14244783       0.50000000 </v>
   <v>       0.71470329       0.14408264       0.50000000 </v>
   <v>       0.85805263       0.14467669       0.50000000 </v>
   <v>       0.00095476       0.28713011       0.50000000 </v>
   <v>       0.14372552       0.28645370       0.50000000 </v>
   <v>       0.28540977       0.28469374       0.50000000 </v>
   <v>       0.42724431       0.28306005       0.50000000 </v>
   <v>       0.57071254       0.28469374       0.50000000 </v>
   <v>       0.71415674       0.28645370       0.50000000 </v>
   <v>       0.85760392       0.28713011       0.50000000 </v>
   <v>       0.00054479       0.42966101       0.50000000 </v>
   <v>       0.14422690       0.42957551       0.50000000 </v>
   <v>       0.28730213       0.42918005       0.50000000 </v>
   <v>       0.42797654       0.42569726       0.50000000 </v>
   <v>       0.56914930       0.42569726       0.50000000 </v>
   <v>       0.71330650       0.42918005       0.50000000 </v>
   <v>       0.85677719       0.42957551       0.50000000 </v>
   <v>       0.99928255       0.57181462       0.50000000 </v>
   <v>       0.14396064       0.57181462       0.50000000 </v>
   <v>       0.28862787       0.57181625       0.50000000 </v>
   <v>       0.43313209       0.57215564       0.50000000 </v>
   <v>       0.71045212       0.57215564       0.50000000 </v>
   <v>       0.85461695       0.57181625       0.50000000 </v>
   <v>       0.99707234       0.71370518       0.50000000 </v>
   <v>       0.14255519       0.71368182       0.50000000 </v>
   <v>       0.28806142       0.71370518       0.50000000 </v>
   <v>       0.43464191       0.71382540       0.50000000 </v>
   <v>       0.58510826       0.71626937       0.50000000 </v>
   <v>       0.70258968       0.71626937       0.50000000 </v>
   <v>       0.85061206       0.71382540       0.50000000 </v>
   <v>       0.99777175       0.85613493       0.50000000 </v>
   <v>       0.14160898       0.85591288       0.50000000 </v>
   <v>       0.28573247       0.85591288       0.50000000 </v>
   <v>       0.42979175       0.85613493       0.50000000 </v>
   <v>       0.57342541       0.85758690       0.50000000 </v>
   <v>       0.71640633       0.86138410       0.50000000 </v>
   <v>       0.85559006       0.85758690       0.50000000 </v>
   <v>       0.04754270       0.09547788       0.50000000 </v>
   <v>       0.18957833       0.09405657       0.50000000 </v>
   <v>       0.33254182       0.09365506       0.50000000 </v>
   <v>       0.47590681       0.09405657       0.50000000 </v>
   <v>       0.61936376       0.09547788       0.50000000 </v>
   <v>       0.76280004       0.09719274       0.50000000 </v>
   <v>       0.90582126       0.09719274       0.50000000 </v>
   <v>       0.04854983       0.23934281       0.50000000 </v>
   <v>       0.19048138       0.23782962       0.50000000 </v>
   <v>       0.33234878       0.23634667       0.50000000 </v>
   <v>       0.47542646       0.23634667       0.50000000 </v>
   <v>       0.61877681       0.23782962       0.50000000 </v>
   <v>       0.76222155       0.23934281       0.50000000 </v>
   <v>       0.90562797       0.23982737       0.50000000 </v>
   <v>       0.04871288       0.38232824       0.50000000 </v>
   <v>       0.19188940       0.38184213       0.50000000 </v>
   <v>       0.33352206       0.38013969       0.50000000 </v>
   <v>       0.47472270       0.37801683       0.50000000 </v>
   <v>       0.61804620       0.38013969       0.50000000 </v>
   <v>       0.76138130       0.38184213       0.50000000 </v>
   <v>       0.90504393       0.38232824       0.50000000 </v>
   <v>       0.04810654       0.52478452       0.50000000 </v>
   <v>       0.19263929       0.52476864       0.50000000 </v>
   <v>       0.33696521       0.52455433       0.50000000 </v>
   <v>       0.47833704       0.52146721       0.50000000 </v>
   <v>       0.61455874       0.52146721       0.50000000 </v>
   <v>       0.75901769       0.52455433       0.50000000 </v>
   <v>       0.90355792       0.52476864       0.50000000 </v>
   <v>       0.04642473       0.66742047       0.50000000 </v>
   <v>       0.19185612       0.66685228       0.50000000 </v>
   <v>       0.33777931       0.66688794       0.50000000 </v>
   <v>       0.48615700       0.66710760       0.50000000 </v>
   <v>       0.75237918       0.66710760       0.50000000 </v>
   <v>       0.90053720       0.66688794       0.50000000 </v>
   <v>       0.04582562       0.80879365       0.50000000 </v>
   <v>       0.19009580       0.80876303       0.50000000 </v>
   <v>       0.33439660       0.80879365       0.50000000 </v>
   <v>       0.47844872       0.80897069       0.50000000 </v>
   <v>       0.62209487       0.81129474       0.50000000 </v>
   <v>       0.76062845       0.81129474       0.50000000 </v>
   <v>       0.90195054       0.80897069       0.50000000 </v>
   <v>       0.04629157       0.95154386       0.50000000 </v>
   <v>       0.18948291       0.95113037       0.50000000 </v>
   <v>       0.33307603       0.95113037       0.50000000 </v>
   <v>       0.47668087       0.95154386       0.50000000 </v>
   <v>       0.62015751       0.95313740       0.50000000 </v>
   <v>       0.76355772       0.95568687       0.50000000 </v>
   <v>       0.90440847       0.95313740       0.50000000 </v>
   <v>       0.56830873       0.56518888       0.50000000 </v>
  </varray>
 </structure>
 <calculation>
  <scstep>
   <time name="dav">    2.34    2.37</time>
   <time name="total">    2.71    2.82</time>
   <energy>
    <i name="alphaZ">    156.50993408 </i>
    <i name="ewald">  58206.74094806 </i>
    <i name="hartreedc"> -70374.18586985 </i>
    <i name="XCdc">   1302.10825598 </i>
    <i name="pawpsdc">  12033.28670802 </i>
    <i name="pawaedc"> -12049.96799276 </i>
    <i name="eentropy">     -0.00000000 </i>
    <i name="bandstr">   -904.57085537 </i>
    <i name="atom">  16260.93880140 </i>
    <i name="e_fr_energy">   4630.85992956 </i>
    <i name="e_wo_entrp">   4630.85992956 </i>
    <i name="e_0_energy">   4630.85992956 </i>
   </energy>
  </scstep>
  <scstep>
   <time name="dav">    2.98    3.03</time>
   <time name="total">    2.98    3.03</time>
   <energy>
    <i name="e_fr_energy">    216.73807826 </i>
    <i name="e_wo_entrp">    216.73807826 </i>
    <i name="e_0_energy">    216.73807826 </i>
   </energy>
  </scstep>
  <scstep>
   <time name="dav">    2.46    2.51</time>
   <time name="total">    2.46    2.51</time>
   <energy>
    <i name="e_fr_energy">   -867.47085578 </i>
    <i name="e_wo_entrp">   -867.47085578 </i>
    <i name="e_0_energy">   -867.47085578 </i>
   </energy>
  </scstep>
  <scstep>
   <time name="dav">    2.46    2.50</time>
   <time name="total">    2.46    2.50</time>
   <energy>
    <i name="e_fr_energy">   -934.19077630 </i>
    <i name="e_wo_entrp">   -934.19077630 </i>
    <i name="e_0_energy">   -934.19077630 </i>
   </energy>
  </scstep>
  <scstep>
   <time name="dav">    2.49    2.52</time>
   <time name="total">    2.92    2.97</time>
   <energy>
    <i name="e_fr_energy">   -935.77282350 </i>
    <i name="e_wo_entrp">   -935.77282350 </i>
    <i name="e_0_energy">   -935.77282350 </i>
   </energy>
  </scstep>
  <scstep>
   <time name="dav">    2.31    2.34</time>
   <time name="total">    3.11    3.16</time>
   <energy>
    <i name="e_fr_energy">   -858.73033719 </i>
    <i name="e_wo_entrp">   -858.73033719 </i>
    <i name="e_0_energy">   -858.73033719 </i>
   </energy>
  </scstep>
  <scstep>
   <time name="dav">    2.34    2.37</time>
   <time name="total">    3.14    3.19</time>
   <energy>
    <i name="e_fr_energy">   -850.19271888 </i>
    <i name="e_wo_entrp">   -850.19271888 </i>
    <i name="e_0_energy">   -850.19271888 </i>
   </energy>
  </scstep>
  <scstep>
   <time name="dav">    2.26    2.30</time>
   <time name="total">    3.06    3.12</time>
   <energy>
    <i name="e_fr_energy">   -845.92663090 </i>
    <i name="e_wo_entrp">   -845.92662998 </i>
    <i name="e_0_energy">   -845.92663044 </i>
   </energy>
  </scstep>
  <scstep>
   <time name="dav">    2.29    2.32</time>
   <time name="total">    3.09    3.15</time>
   <energy>
    <i name="e_fr_energy">   -845.80022433 </i>
    <i name="e_wo_entrp">   -845.80022433 </i>
    <i name="e_0_energy">   -845.80022433 </i>
   </energy>
  </scstep>
  <scstep>
   <time name="dav">    2.36    2.39</time>
   <time name="total">    3.16    3.21</time>
   <energy>
    <i name="e_fr_energy">   -845.63898838 </i>
    <i name="e_wo_entrp">   -845.63898838 </i>
    <i name="e_0_energy">   -845.63898838 </i>
   </energy>
  </scstep>
  <scstep>
   <time name="dav">    2.21    2.24</time>
   <time name="total">    3.01    3.07</time>
   <energy>
    <i name="e_fr_energy">   -845.58616333 </i>
    <i name="e_wo_entrp">   -845.58616333 </i>
    <i name="e_0_energy">   -845.58616333 </i>
   </energy>
  </scstep>
  <scstep>
   <time name="dav">    2.24    2.27</time>
   <time name="total">    3.05    3.10</time>
   <energy>
    <i name="e_fr_energy">   -845.57342096 </i>
    <i name="e_wo_entrp">   -845.57342096 </i>
    <i name="e_0_energy">   -845.57342096 </i>
   </energy>
  </scstep>
  <scstep>
   <time name="dav">    2.22    2.25</time>
   <time name="total">    3.04    3.09</time>
   <energy>
    <i name="e_fr_energy">   -845.58404177 </i>
    <i name="e_wo_entrp">   -845.58404177 </i>
    <i name="e_0_energy">   -845.58404177 </i>
   </energy>
  </scstep>
  <scstep>
   <time name="dav">    2.21    2.24</time>
   <time name="total">    3.01    3.06</time>
   <energy>
    <i name="e_fr_energy">   -845.59368453 </i>
    <i name="e_wo_entrp">   -845.59368453 </i>
    <i name="e_0_energy">   -845.59368453 </i>
   </energy>
  </scstep>
  <scstep>
   <time name="dav">    2.16    2.20</time>
   <time name="total">    2.97    3.02</time>
   <energy>
    <i name="e_fr_energy">   -845.62488151 </i>
    <i name="e_wo_entrp">   -845.62488151 </i>
    <i name="e_0_energy">   -845.62488151 </i>
   </energy>
  </scstep>
  <scstep>
   <time name="dav">    2.21    2.24</time>
   <time name="total">    3.01    3.06</time>
   <energy>
    <i name="e_fr_energy">   -845.64122898 </i>
    <i name="e_wo_entrp">   -845.64122898 </i>
    <i name="e_0_energy">   -845.64122898 </i>
   </energy>
  </scstep>
  <scstep>
   <time name="dav">    2.29    2.32</time>
   <time name="total">    3.09    3.14</time>
   <energy>
    <i name="e_fr_energy">   -845.64756495 </i>
    <i name="e_wo_entrp">   -845.64756495 </i>
    <i name="e_0_energy">   -845.64756495 </i>
   </energy>
  </scstep>
  <scstep>
   <time name="dav">    2.17    2.20</time>
   <time name="total">    2.98    3.03</time>
   <energy>
    <i name="e_fr_energy">   -845.65071683 </i>
    <i name="e_wo_entrp">   -845.65071683 </i>
    <i name="e_0_energy">   -845.65071683 </i>
   </energy>
  </scstep>
  <scstep>
   <time name="dav">    2.31    2.34</time>
   <time name="total">    3.13    3.17</time>
   <energy>
    <i name="e_fr_energy">   -845.65174690 </i>
    <i name="e_wo_entrp">   -845.65174690 </i>
    <i name="e_0_energy">   -845.65174690 </i>
   </energy>
  </scstep>
  <scstep>
   <time name="dav">    2.23    2.25</time>
   <time name="total">    3.04    3.08</time>
   <energy>
    <i name="e_fr_energy">   -845.65216789 </i>
    <i name="e_wo_entrp">   -845.65216789 </i>
    <i name="e_0_energy">   -845.65216789 </i>
   </energy>
  </scstep>
  <scstep>
   <time name="dav">    2.22    2.24</time>
   <time name="total">    3.03    3.06</time>
   <energy>
    <i name="e_fr_energy">   -845.65236726 </i>
    <i name="e_wo_entrp">   -845.65236726 </i>
    <i name="e_0_energy">   -845.65236726 </i>
   </energy>
  </scstep>
  <scstep>
   <time name="dav">    2.19    2.21</time>
   <time name="total">    3.01    3.04</time>
   <energy>
    <i name="e_fr_energy">   -845.65248203 </i>
    <i name="e_wo_entrp">   -845.65248203 </i>
    <i name="e_0_energy">   -845.65248203 </i>
   </energy>
  </scstep>
  <scstep>
   <time name="dav">    2.25    2.27</time>
   <time name="total">    3.06    3.11</time>
   <energy>
    <i name="e_fr_energy">   -845.65255647 </i>
    <i name="e_wo_entrp">   -845.65255647 </i>
    <i name="e_0_energy">   -845.65255647 </i>
   </energy>
  </scstep>
  <scstep>
   <time name="dav">    2.27    2.29</time>
   <time name="total">    3.09    3.12</time>
   <energy>
    <i name="e_fr_energy">   -845.65259604 </i>
    <i name="e_wo_entrp">   -845.65259604 </i>
    <i name="e_0_energy">   -845.65259604 </i>
   </energy>
  </scstep>
  <scstep>
   <time name="dav">    2.25    2.27</time>
   <time name="total">    3.05    3.10</time>
   <energy>
    <i name="e_fr_energy">   -845.65261370 </i>
    <i name="e_wo_entrp">   -845.65261370 </i>
    <i name="e_0_energy">   -845.65261370 </i>
   </energy>
  </scstep>
  <scstep>
   <time name="dav">    2.23    2.26</time>
   <time name="total">    3.06    3.10</time>
   <energy>
    <i name="e_fr_energy">   -845.65263038 </i>
    <i name="e_wo_entrp">   -845.65263038 </i>
    <i name="e_0_energy">   -845.65263038 </i>
   </energy>
  </scstep>
  <scstep>
   <time name="dav">    2.20    2.23</time>
   <time name="total">    3.02    3.06</time>
   <energy>
    <i name="e_fr_energy">   -845.65263348 </i>
    <i name="e_wo_entrp">   -845.65263348 </i>
    <i name="e_0_energy">   -845.65263348 </i>
   </energy>
  </scstep>
  <scstep>
   <time name="dav">    1.93    1.95</time>
   <time name="total">    2.75    2.79</time>
   <energy>
    <i name="e_fr_energy">   -845.65263479 </i>
    <i name="e_wo_entrp">   -845.65263479 </i>
    <i name="e_0_energy">   -845.65263479 </i>
   </energy>
  </scstep>
  <scstep>
   <time name="dav">    1.82    1.85</time>
   <time name="total">    2.65    2.68</time>
   <energy>
    <i name="e_fr_energy">   -845.65263512 </i>
    <i name="e_wo_entrp">   -845.65263512 </i>
    <i name="e_0_energy">   -845.65263512 </i>
   </energy>
  </scstep>
  <scstep>
   <time name="dav">    1.65    1.67</time>
   <time name="total">    2.47    2.51</time>
   <energy>
    <i name="e_fr_energy">   -845.65263524 </i>
    <i name="e_wo_entrp">   -845.65263524 </i>
    <i name="e_0_energy">   -845.65263524 </i>
   </energy>
  </scstep>
  <scstep>
   <time name="dav">    1.67    1.68</time>
   <time name="total">    2.49    2.52</time>
   <energy>
    <i name="e_fr_energy">   -845.65263530 </i>
    <i name="e_wo_entrp">   -845.65263530 </i>
    <i name="e_0_energy">   -845.65263530 </i>
   </energy>
  </scstep>
  <scstep>
   <time name="dav">    1.70    1.72</time>
   <time name="total">    2.53    2.56</time>
   <energy>
    <i name="e_fr_energy">   -845.65263533 </i>
    <i name="e_wo_entrp">   -845.65263533 </i>
    <i name="e_0_energy">   -845.65263533 </i>
   </energy>
  </scstep>
  <scstep>
   <time name="dav">    1.84    1.87</time>
   <time name="total">    2.22    2.25</time>
   <energy>
    <i name="alphaZ">    156.50993408 </i>
    <i name="ewald">  58206.74094806 </i>
    <i name="hartreedc"> -72314.24787344 </i>
    <i name="XCdc">   1369.72268683 </i>
    <i name="pawpsdc">  44018.20703904 </i>
    <i name="pawaedc"> -44053.54864160 </i>
    <i name="eentropy">     -0.00000000 </i>
    <i name="bandstr">  -4489.97552970 </i>
    <i name="atom">  16260.93880140 </i>
    <i name="e_fr_energy">   -845.65263533 </i>
    <i name="e_wo_entrp">   -845.65263533 </i>
    <i name="e_0_energy">   -845.65263533 </i>
   </energy>
  </scstep>
  <structure>
   <crystal>
    <varray name="basis" >
     <v>      17.59966831       0.00000000       0.00000000 </v>
     <v>      -8.79983416      15.24175986       0.00000000 </v>
     <v>       0.00000000       0.00000000      19.92151445 </v>
    </varray>
    <i name="volume">   5343.94461817 </i>
    <varray name="rec_basis" >
     <v>       0.05681925       0.03280461       0.00000000 </v>
     <v>       0.00000000       0.06560922       0.00000000 </v>
     <v>       0.00000000       0.00000000       0.05019699 </v>
    </varray>
   </crystal>
   <varray name="positions" >
    <v>       0.99943010       0.00005992       0.50000000 </v>
    <v>       0.14164706       0.99871895       0.50000000 </v>
    <v>       0.28492260       0.99841663       0.50000000 </v>
    <v>       0.42850047       0.99871895       0.50000000 </v>
    <v>       0.57205839       0.00005992       0.50000000 </v>
    <v>       0.71530655       0.00214292       0.50000000 </v>
    <v>       0.85826494       0.00214292       0.50000000 </v>
    <v>       0.00080792       0.14408264       0.50000000 </v>
    <v>       0.14259355       0.14244783       0.50000000 </v>
    <v>       0.28470221       0.14112972       0.50000000 </v>
    <v>       0.42785608       0.14112972       0.50000000 </v>
    <v>       0.57128286       0.14244783       0.50000000 </v>
    <v>       0.71470329       0.14408264       0.50000000 </v>
    <v>       0.85805263       0.14467669       0.50000000 </v>
    <v>       0.00095476       0.28713011       0.50000000 </v>
    <v>       0.14372552       0.28645370       0.50000000 </v>
    <v>       0.28540977       0.28469374       0.50000000 </v>
    <v>       0.42724431       0.28306005       0.50000000 </v>
    <v>       0.57071254       0.28469374       0.50000000 </v>
    <v>       0.71415674       0.28645370       0.50000000 </v>
    <v>       0.85760392       0.28713011       0.50000000 </v>
    <v>       0.00054479       0.42966101       0.50000000 </v>
    <v>       0.14422690       0.42957551       0.50000000 </v>
    <v>       0.28730213       0.42918005       0.50000000 </v>
    <v>       0.42797654       0.42569726       0.50000000 </v>
    <v>       0.56914930       0.42569726       0.50000000 </v>
    <v>       0.71330650       0.42918005       0.50000000 </v>
    <v>       0.85677719       0.42957551       0.50000000 </v>
    <v>       0.99928255       0.57181462       0.50000000 </v>
    <v>       0.14396064       0.57181462       0.50000000 </v>
    <v>       0.28862787       0.57181625       0.50000000 </v>
    <v>       0.43313209       0.57215564       0.50000000 </v>
    <v>       0.71045212       0.57215564       0.50000000 </v>
    <v>       0.85461695       0.57181625       0.50000000 </v>
    <v>       0.99707234       0.71370518       0.50000000 </v>
    <v>       0.14255519       0.71368182       0.50000000 </v>
    <v>       0.28806142       0.71370518       0.50000000 </v>
    <v>       0.43464191       0.71382540       0.50000000 </v>
    <v>       0.58510826       0.71626937       0.50000000 </v>
    <v>       0.70258968       0.71626937       0.50000000 </v>
    <v>       0.85061206       0.71382540       0.50000000 </v>
    <v>       0.99777175       0.85613493       0.50000000 </v>
    <v>       0.14160898       0.85591288       0.50000000 </v>
    <v>       0.28573247       0.85591288       0.50000000 </v>
    <v>       0.42979175       0.85613493       0.50000000 </v>
    <v>       0.57342541       0.85758690       0.50000000 </v>
    <v>       0.71640633       0.86138410       0.50000000 </v>
    <v>       0.85559006       0.85758690       0.50000000 </v>
    <v>       0.04754270       0.09547788       0.50000000 </v>
    <v>       0.18957833       0.09405657       0.50000000 </v>
    <v>       0.33254182       0.09365506       0.50000000 </v>
    <v>       0.47590681       0.09405657       0.50000000 </v>
    <v>       0.61936376       0.09547788       0.50000000 </v>
    <v>       0.76280004       0.09719274       0.50000000 </v>
    <v>       0.90582126       0.09719274       0.50000000 </v>
    <v>       0.04854983       0.23934281       0.50000000 </v>
    <v>       0.19048138       0.23782962       0.50000000 </v>
    <v>       0.33234878       0.23634667       0.50000000 </v>
    <v>       0.47542646       0.23634667       0.50000000 </v>
    <v>       0.61877681       0.23782962       0.50000000 </v>
    <v>       0.76222155       0.23934281       0.50000000 </v>
    <v>       0.90562797       0.23982737       0.50000000 </v>
    <v>       0.04871288       0.38232824       0.50000000 </v>
    <v>       0.19188940       0.38184213       0.50000000 </v>
    <v>       0.33352206       0.38013969       0.50000000 </v>
    <v>       0.47472270       0.37801683       0.50000000 </v>
    <v>       0.61804620       0.38013969       0.50000000 </v>
    <v>       0.76138130       0.38184213       0.50000000 </v>
    <v>       0.90504393       0.38232824       0.50000000 </v>
    <v>       0.04810654       0.52478452       0.50000000 </v>
    <v>       0.19263929       0.52476864       0.50000000 </v>
    <v>       0.33696521       0.52455433       0.50000000 </v>
    <v>       0.47833704       0.52146721       0.50000000 </v>
    <v>       0.61455874       0.52146721       0.50000000 </v>
    <v>       0.75901769       0.52455433       0.50000000 </v>
    <v>       0.90355792       0.52476864       0.50000000 </v>
    <v>       0.04642473       0.66742047       0.50000000 </v>
    <v>       0.19185612       0.66685228       0.50000000 </v>
    <v>       0.33777931       0.66688794       0.50000000 </v>
    <v>       0.48615700       0.66710760       0.50000000 </v>
    <v>       0.75237918       0.66710760       0.50000000 </v>
    <v>       0.90053720       0.66688794       0.50000000 </v>
    <v>       0.04582562       0.80879365       0.50000000 </v>
    <v>       0.19009580       0.80876303       0.50000000 </v>
    <v>       0.33439660       0.80879365       0.50000000 </v>
    <v>       0.47844872       0.80897069       0.50000000 </v>
    <v>       0.62209487       0.81129474       0.50000000 </v>
    <v>       0.76062845       0.81129474       0.50000000 </v>
    <v>       0.90195054       0.80897069       0.50000000 </v>
    <v>       0.04629157       0.95154386       0.50000000 </v>
    <v>       0.18948291       0.95113037       0.50000000 </v>
    <v>       0.33307603       0.95113037       0.50000000 </v>
    <v>       0.47668087       0.95154386       0.50000000 </v>
    <v>       0.62015751       0.95313740       0.50000000 </v>
    <v>       0.76355772       0.95568687       0.50000000 </v>
    <v>       0.90440847       0.95313740       0.50000000 </v>
    <v>       0.56830873       0.56518888       0.50000000 </v>
   </varray>
  </structure>
  <varray name="forces" >
   <v>      -0.03628580      -0.02909060      -0.00000000 </v>
   <v>      -0.02167046      -0.01385229       0.00000000 </v>
   <v>      -0.00351101      -0.01542836       0.00000000 </v>
   <v>       0.01940564      -0.01041194       0.00000000 </v>
   <v>       0.03927807      -0.02729355      -0.00000000 </v>
   <v>      -0.03291594      -0.05110317      -0.00000000 </v>
   <v>       0.03568132      -0.05173737       0.00000000 </v>
   <v>      -0.00449714      -0.02949174       0.00000000 </v>
   <v>      -0.02596656      -0.02787952       0.00000000 </v>
   <v>      -0.00829894      -0.03546744       0.00000000 </v>
   <v>       0.00624313      -0.03474371       0.00000000 </v>
   <v>       0.02595751      -0.02656482      -0.00000000 </v>
   <v>       0.00575422      -0.02895308       0.00000000 </v>
   <v>       0.00075457      -0.04427893       0.00000000 </v>
   <v>      -0.00791251      -0.03347367       0.00000000 </v>
   <v>       0.00678675      -0.04649891       0.00000000 </v>
   <v>      -0.02989809      -0.00387992       0.00000000 </v>
   <v>      -0.00042624      -0.09445923       0.00000000 </v>
   <v>       0.02935887      -0.00303309      -0.00000000 </v>
   <v>      -0.00650323      -0.04597023       0.00000000 </v>
   <v>       0.00835966      -0.03416280       0.00000000 </v>
   <v>      -0.00381294      -0.00602551       0.00000000 </v>
   <v>      -0.02190183      -0.00326976       0.00000000 </v>
   <v>       0.05931141      -0.13885179       0.00000000 </v>
   <v>      -0.11129538      -0.20002897       0.00000000 </v>
   <v>       0.11130551      -0.19945644       0.00000000 </v>
   <v>      -0.06034815      -0.13641026       0.00000000 </v>
   <v>       0.02347884      -0.00804733       0.00000000 </v>
   <v>      -0.02448455       0.21565965       0.00000000 </v>
   <v>      -0.00356982       0.03382375      -0.00000000 </v>
   <v>      -0.08168026       0.12982913       0.00000000 </v>
   <v>       0.05219995       0.39736474      -0.00000000 </v>
   <v>      -0.05070429       0.39999911      -0.00000000 </v>
   <v>       0.07465629       0.14660607       0.00000000 </v>
   <v>      -0.13665309       0.14167347       0.00000000 </v>
   <v>      -0.04364695       0.09651523       0.00000000 </v>
   <v>       0.01108378       0.03010942       0.00000000 </v>
   <v>       0.08841614       0.04469656       0.00000000 </v>
   <v>       1.36530626       1.25137943       0.00000000 </v>
   <v>      -1.36308534       1.25077283       0.00000000 </v>
   <v>      -0.07976064       0.04167732       0.00000000 </v>
   <v>      -0.03303342      -0.01106016       0.00000000 </v>
   <v>      -0.02404869      -0.01282577      -0.00000000 </v>
   <v>       0.00491755      -0.00227406      -0.00000000 </v>
   <v>       0.04652646      -0.00737222       0.00000000 </v>
   <v>       0.15187782       0.03612709      -0.00000000 </v>
   <v>       0.00172705      -0.25329440      -0.00000000 </v>
   <v>      -0.14672945       0.03393459       0.00000000 </v>
   <v>       0.02487130       0.03504722      -0.00000000 </v>
   <v>       0.01033910       0.02668386       0.00000000 </v>
   <v>       0.00120103       0.02968031      -0.00000000 </v>
   <v>      -0.00914566       0.02438499      -0.00000000 </v>
   <v>      -0.02572734       0.03313759      -0.00000000 </v>
   <v>      -0.01274197       0.02876531       0.00000000 </v>
   <v>       0.01127099       0.02928118       0.00000000 </v>
   <v>       0.01463860       0.03841629       0.00000000 </v>
   <v>      -0.00984933       0.00562514      -0.00000000 </v>
   <v>       0.01561842       0.03748985       0.00000000 </v>
   <v>      -0.01489973       0.03682736       0.00000000 </v>
   <v>       0.01003401       0.00453475       0.00000000 </v>
   <v>      -0.01498760       0.03795027      -0.00000000 </v>
   <v>      -0.00052873       0.03446997       0.00000000 </v>
   <v>       0.00767670       0.03248395       0.00000000 </v>
   <v>       0.04523720       0.06151778       0.00000000 </v>
   <v>      -0.02308240      -0.19892093       0.00000000 </v>
   <v>      -0.00007150       0.11076363       0.00000000 </v>
   <v>       0.02300915      -0.19998307       0.00000000 </v>
   <v>      -0.04417157       0.06128994       0.00000000 </v>
   <v>      -0.00877491       0.03246453      -0.00000000 </v>
   <v>      -0.02110928       0.05081433      -0.00000000 </v>
   <v>       0.01927403      -0.00603596       0.00000000 </v>
   <v>       0.18776654       0.11266339       0.00000000 </v>
   <v>       1.02195460      -1.56383630       0.00000000 </v>
   <v>      -1.02373707      -1.56433227       0.00000000 </v>
   <v>      -0.18817486       0.10846845      -0.00000000 </v>
   <v>      -0.00195154       0.00319235       0.00000000 </v>
   <v>       0.26699553      -0.49292433      -0.00000000 </v>
   <v>      -0.03315103      -0.05069223       0.00000000 </v>
   <v>      -0.06243215      -0.06897550       0.00000000 </v>
   <v>      -0.27216513       0.00856325       0.00000000 </v>
   <v>       0.26741164       0.00680383       0.00000000 </v>
   <v>       0.03992476      -0.08209770      -0.00000000 </v>
   <v>       0.00887671       0.02834640       0.00000000 </v>
   <v>       0.02932793       0.00183996      -0.00000000 </v>
   <v>      -0.03407445      -0.01700552       0.00000000 </v>
   <v>      -0.08562721      -0.01455732      -0.00000000 </v>
   <v>      -0.88759569       0.24365802      -0.00000000 </v>
   <v>       0.88348222       0.24379823      -0.00000000 </v>
   <v>       0.07872407      -0.01245704      -0.00000000 </v>
   <v>       0.02806199       0.02331828       0.00000000 </v>
   <v>       0.01241225       0.00257211       0.00000000 </v>
   <v>      -0.00593031      -0.00180689      -0.00000000 </v>
   <v>      -0.03065083       0.01678504       0.00000000 </v>
   <v>      -0.11081941       0.11942421       0.00000000 </v>
   <v>      -0.00133987       0.01716918      -0.00000000 </v>
   <v>       0.10802314       0.12108055       0.00000000 </v>
   <v>       0.00086161      -0.11916377       0.00000000 </v>
  </varray>
  <varray name="stress" >
   <v>     -10.57797089      -0.01467445       0.00000000 </v>
   <v>      -0.01467445       3.00225559       0.00000000 </v>
   <v>       0.00000000       0.00000000      -0.42556332 </v>
  </varray>
  <energy>
   <i name="e_fr_energy">   -845.65263533 </i>
   <i name="e_wo_entrp">   -845.65263533 </i>
   <i name="e_0_energy">     -0.00000000 </i>
  </energy>
  <time name="totalsc">  103.38  105.02</time>
  <eigenvalues>
   <array>
    <dimension dim="1">band</dimension>
    <dimension dim="2">kpoint</dimension>
    <dimension dim="3">spin</dimension>
    <field>eigene</field>
    <field>occ</field>
    <set>
     <set comment="spin 1">
      <set comment="kpoint 1">
       <r>  -22.5410    1.0000 </r>
       <r>  -22.0202    1.0000 </r>
       <r>  -21.7744    1.0000 </r>
       <r>  -21.7453    1.0000 </r>
       <r>  -21.6960    1.0000 </r>
       <r>  -21.6529    1.0000 </r>
       <r>  -21.6178    1.0000 </r>
       <r>  -21.2361    1.0000 </r>
       <r>  -21.0699    1.0000 </r>
       <r>  -21.0046    1.0000 </r>
       <r>  -20.9696    1.0000 </r>
       <r>  -20.9266    1.0000 </r>
       <r>  -20.8779    1.0000 </r>
       <r>  -20.7439    1.0000 </r>
       <r>  -20.7024    1.0000 </r>
       <r>  -20.6632    1.0000 </r>
       <r>  -20.5939    1.0000 </r>
       <r>  -20.5679    1.0000 </r>
       <r>  -20.4279    1.0000 </r>
       <r>  -19.9822    1.0000 </r>
       <r>  -19.9241    1.0000 </r>
       <r>  -19.8050    1.0000 </r>
       <r>  -19.7628    1.0000 </r>
       <r>  -19.7374    1.0000 </r>
       <r>  -19.7357    1.0000 </r>
       <r>  -19.7044    1.0000 </r>
       <r>  -19.6985    1.0000 </r>
       <r>  -19.6453    1.0000 </r>
       <r>  -19.6393    1.0000 </r>
       <r>  -19.6292    1.0000 </r>
       <r>  -19.4938    1.0000 </r>
       <r>  -19.4067    1.0000 </r>
       <r>  -19.3642    1.0000 </r>
       <r>  -19.3562    1.0000 </r>
       <r>  -19.2911    1.0000 </r>
       <r>  -19.2371    1.0000 </r>
       <r>  -19.1082    1.0000 </r>
       <r>  -19.0005    1.0000 </r>
       <r>  -18.9311    1.0000 </r>
       <r>  -18.8752    1.0000 </r>
       <r>  -18.8526    1.0000 </r>
       <r>  -18.8363    1.0000 </r>
       <r>  -18.7681    1.0000 </r>
       <r>  -18.7511    1.0000 </r>
       <r>  -18.7281    1.0000 </r>
       <r>  -18.7134    1.0000 </r>
       <r>  -18.6921    1.0000 </r>
       <r>  -18.4436    1.0000 </r>
       <r>  -14.1409    1.0000 </r>
       <r>  -13.1816    1.0000 </r>
       <r>  -13.1576    1.0000 </r>
       <r>  -13.1096    1.0000 </r>
       <r>  -13.1042    1.0000 </r>
       <r>  -13.0805    1.0000 </r>
       <r>  -13.0157    1.0000 </r>
       <r>  -12.9578    1.0000 </r>
       <r>  -12.9522    1.0000 </r>
       <r>  -12.9376    1.0000 </r>
       <r>  -12.8033    1.0000 </r>
       <r>  -12.7669    1.0000 </r>
       <r>  -12.6017    1.0000 </r>
       <r>  -12.5059    1.0000 </r>
       <r>  -12.4856    1.0000 </r>
       <r>  -12.3772    1.0000 </r>
       <r>  -12.3085    1.0000 </r>
       <r>  -12.2963    1.0000 </r>
       <r>  -12.1772    1.0000 </r>
       <r>  -11.9011    1.0000 </r>
       <r>  -11.8836    1.0000 </r>
       <r>  -11.7676    1.0000 </r>
       <r>  -11.7660    1.0000 </r>
       <r>  -11.7521    1.0000 </r>
       <r>  -11.7405    1.0000 </r>
       <r>  -11.6948    1.0000 </r>
       <r>  -11.6567    1.0000 </r>
       <r>  -11.6317    1.0000 </r>
       <r>  -11.5394    1.0000 </r>
       <r>  -11.4216    1.0000 </r>
       <r>  -11.1990    1.0000 </r>
       <r>  -11.1249    1.0000 </r>
       <r>  -11.0839    1.0000 </r>
       <r>  -11.0568    1.0000 </r>
       <r>  -10.9673    1.0000 </r>
       <r>  -10.9126    1.0000 </r>
       <r>  -10.6869    1.0000 </r>
       <r>  -10.4609    1.0000 </r>
       <r>  -10.4314    1.0000 </r>
       <r>  -10.3489    1.0000 </r>
       <r>  -10.2540    1.0000 </r>
       <r>  -10.2090    1.0000 </r>
       <r>   -9.8914    1.0000 </r>
       <r>   -9.7688    1.0000 </r>
       <r>   -9.7641    1.0000 </r>
       <r>   -9.7248    1.0000 </r>
       <r>   -9.6755    1.0000 </r>
       <r>   -9.5857    1.0000 </r>
       <r>   -9.5427    1.0000 </r>
       <r>   -9.4997    1.0000 </r>
       <r>   -9.4616    1.0000 </r>
       <r>   -9.3519    1.0000 </r>
       <r>   -9.3445    1.0000 </r>
       <r>   -9.2889    1.0000 </r>
       <r>   -9.2612    1.0000 </r>
       <r>   -9.2574    1.0000 </r>
       <r>   -9.2513    1.0000 </r>
       <r>   -9.2381    1.0000 </r>
       <r>   -9.2244    1.0000 </r>
       <r>   -9.2228    1.0000 </r>
       <r>   -9.2080    1.0000 </r>
       <r>   -9.2020    1.0000 </r>
       <r>   -9.2000    1.0000 </r>
       <r>   -9.1988    1.0000 </r>
       <r>   -9.1554    1.0000 </r>
       <r>   -9.1331    1.0000 </r>
       <r>   -9.1123    1.0000 </r>
       <r>   -9.1099    1.0000 </r>
       <r>   -9.1020    1.0000 </r>
       <r>   -9.0441    1.0000 </r>
       <r>   -8.9930    1.0000 </r>
       <r>   -8.8466    1.0000 </r>
       <r>   -8.7953    1.0000 </r>
       <r>   -8.6542    1.0000 </r>
       <r>   -8.5061    1.0000 </r>
       <r>   -8.4813    1.0000 </r>
       <r>   -8.4388    1.0000 </r>
       <r>   -8.3271    1.0000 </r>
       <r>   -8.2231    1.0000 </r>
       <r>   -8.2019    1.0000 </r>
       <r>   -8.1976    1.0000 </r>
       <r>   -8.1710    1.0000 </r>
       <r>   -8.1497    1.0000 </r>
       <r>   -8.1229    1.0000 </r>
       <r>   -8.0401    1.0000 </r>
       <r>   -7.9702    1.0000 </r>
       <r>   -7.9513    1.0000 </r>
       <r>   -7.8764    1.0000 </r>
       <r>   -7.8505    1.0000 </r>
       <r>   -7.8455    1.0000 </r>
       <r>   -7.8014    1.0000 </r>
       <r>   -7.8000    1.0000 </r>
       <r>   -7.7981    1.0000 </r>
       <r>   -7.7372    1.0000 </r>
       <r>   -7.7338    1.0000 </r>
       <r>   -7.7116    1.0000 </r>
       <r>   -7.6774    1.0000 </r>
       <r>   -7.6752    1.0000 </r>
       <r>   -7.6613    1.0000 </r>
       <r>   -7.6377    1.0000 </r>
       <r>   -7.6261    1.0000 </r>
       <r>   -7.4415    1.0000 </r>
       <r>   -7.4374    1.0000 </r>
       <r>   -7.4300    1.0000 </r>
       <r>   -7.3823    1.0000 </r>
       <r>   -7.3584    1.0000 </r>
       <r>   -7.2734    1.0000 </r>
       <r>   -6.8341    1.0000 </r>
       <r>   -6.7574    1.0000 </r>
       <r>   -6.6208    1.0000 </r>
       <r>   -6.6058    1.0000 </r>
       <r>   -6.5433    1.0000 </r>
       <r>   -6.5425    1.0000 </r>
       <r>   -6.4996    1.0000 </r>
       <r>   -6.4895    1.0000 </r>
       <r>   -6.4558    1.0000 </r>
       <r>   -6.4546    1.0000 </r>
       <r>   -6.4402    1.0000 </r>
       <r>   -6.4399    1.0000 </r>
       <r>   -6.4079    1.0000 </r>
       <r>   -6.4054    1.0000 </r>
       <r>   -6.3616    1.0000 </r>
       <r>   -6.3457    1.0000 </r>
       <r>   -6.3169    1.0000 </r>
       <r>   -6.1114    1.0000 </r>
       <r>   -5.9703    1.0000 </r>
       <r>   -5.9226    1.0000 </r>
       <r>   -5.8869    1.0000 </r>
       <r>   -5.8784    1.0000 </r>
       <r>   -5.8622    1.0000 </r>
       <r>   -5.7815    1.0000 </r>
       <r>   -5.7777    1.0000 </r>
       <r>   -5.5288    1.0000 </r>
       <r>   -5.2212    1.0000 </r>
       <r>   -5.1967    1.0000 </r>
       <r>   -5.1955    1.0000 </r>
       <r>   -5.1415    1.0000 </r>
       <r>   -5.1321    1.0000 </r>
       <r>   -5.1036    1.0000 </r>
       <r>   -5.0016    1.0000 </r>
       <r>   -4.9436    1.0000 </r>
       <r>   -4.9179    1.0000 </r>
       <r>   -4.9060    1.0000 </r>
       <r>   -4.9000    1.0000 </r>
       <r>   -4.7307    1.0000 </r>
       <r>   -1.3152    1.0000 </r>
       <r>   -1.2023    0.0000 </r>
       <r>    0.0598    0.0000 </r>
       <r>    0.2048    0.0000 </r>
       <r>    0.2390    0.0000 </r>
       <r>    0.2585    0.0000 </r>
       <r>    0.2622    0.0000 </r>
       <r>    0.3009    0.0000 </r>
       <r>    0.3069    0.0000 </r>
       <r>    0.3759    0.0000 </r>
       <r>    0.3952    0.0000 </r>
       <r>    0.4322    0.0000 </r>
       <r>    0.4807    0.0000 </r>
       <r>    0.5265    0.0000 </r>
       <r>    0.6117    0.0000 </r>
       <r>    0.7448    0.0000 </r>
       <r>    0.7489    0.0000 </r>
       <r>    0.7764    0.0000 </r>
       <r>    0.8054    0.0000 </r>
       <r>    0.8110    0.0000 </r>
       <r>    0.8277    0.0000 </r>
       <r>    0.8390    0.0000 </r>
       <r>    0.8597    0.0000 </r>
       <r>    0.8707    0.0000 </r>
       <r>    0.9815    0.0000 </r>
       <r>    1.0200    0.0000 </r>
       <r>    1.0610    0.0000 </r>
       <r>    1.1190    0.0000 </r>
       <r>    1.4953    0.0000 </r>
       <r>    1.6736    0.0000 </r>
       <r>    1.6967    0.0000 </r>
       <r>    1.7062    0.0000 </r>
       <r>    1.7236    0.0000 </r>
       <r>    1.7407    0.0000 </r>
       <r>    1.7450    0.0000 </r>
       <r>    1.8052    0.0000 </r>
       <r>    1.8079    0.0000 </r>
       <r>    1.8463    0.0000 </r>
       <r>    1.8493    0.0000 </r>
       <r>    1.8785    0.0000 </r>
       <r>    1.8803    0.0000 </r>
       <r>    1.9052    0.0000 </r>
       <r>    1.9071    0.0000 </r>
       <r>    1.9281    0.0000 </r>
       <r>    1.9830    0.0000 </r>
       <r>    2.0300    0.0000 </r>
       <r>    2.1019    0.0000 </r>
       <r>    2.1070    0.0000 </r>
       <r>    2.1155    0.0000 </r>
       <r>    2.1292    0.0000 </r>
       <r>    2.1351    0.0000 </r>
      </set>
     </set>
    </set>
   </array>
  </eigenvalues>
  <separator name="orbital magnetization" >
   <v name="MAGDIPOLOUT">      0.00000000      0.00000000      0.00000000</v>
  </separator>
  <dos>
   <i name="efermi">     -1.25680026 </i>
   <total>
    <array>
     <dimension dim="1">gridpoints</dimension>
     <dimension dim="2">spin</dimension>
     <field>energy</field>
     <field>total</field>
     <field>integrated</field>
     <set>
      <set comment="spin 1">
       <r>   -23.7748     0.0000     0.0000 </r>
       <r>   -23.6843     0.0000     0.0000 </r>
       <r>   -23.5938     0.0000     0.0000 </r>
       <r>   -23.5034     0.0000     0.0000 </r>
       <r>   -23.4129     0.0000     0.0000 </r>
       <r>   -23.3224     0.0000     0.0000 </r>
       <r>   -23.2319     0.0000     0.0000 </r>
       <r>   -23.1414     0.0000     0.0000 </r>
       <r>   -23.0510     0.0000     0.0000 </r>
       <r>   -22.9605     0.0000     0.0000 </r>
       <r>   -22.8700     0.0000     0.0000 </r>
       <r>   -22.7795     0.0000     0.0000 </r>
       <r>   -22.6891     0.0000     0.0000 </r>
       <r>   -22.5986     0.0000     0.0000 </r>
       <r>   -22.5081    22.1045     2.0000 </r>
       <r>   -22.4176     0.0000     2.0000 </r>
       <r>   -22.3271     0.0000     2.0000 </r>
       <r>   -22.2367     0.0000     2.0000 </r>
       <r>   -22.1462     0.0000     2.0000 </r>
       <r>   -22.0557     0.0000     2.0000 </r>
       <r>   -21.9652    22.1045     4.0000 </r>
       <r>   -21.8747     0.0000     4.0000 </r>
       <r>   -21.7843     1.8232     4.1650 </r>
       <r>   -21.6938    35.8726     9.2457 </r>
       <r>   -21.6033    43.7556    13.9590 </r>
       <r>   -21.5128     0.0000    14.0000 </r>
       <r>   -21.4223     0.0000    14.0000 </r>
       <r>   -21.3319     0.0000    14.0000 </r>
       <r>   -21.2414     5.0061    14.4530 </r>
       <r>   -21.1509     0.0000    16.0000 </r>
       <r>   -21.0604    20.1246    17.8209 </r>
       <r>   -20.9699    32.7187    20.9604 </r>
       <r>   -20.8795    31.1814    24.8213 </r>
       <r>   -20.7890     0.0000    26.0000 </r>
       <r>   -20.6985    37.7991    29.4200 </r>
       <r>   -20.6080    22.6065    32.0454 </r>
       <r>   -20.5176    43.7071    36.0000 </r>
       <r>   -20.4271    12.0477    37.0901 </r>
       <r>   -20.3366     0.0000    38.0000 </r>
       <r>   -20.2461     0.0000    38.0000 </r>
       <r>   -20.1556     0.0000    38.0000 </r>
       <r>   -20.0652     0.0000    38.0000 </r>
       <r>   -19.9747    18.8982    39.7099 </r>
       <r>   -19.8842    22.1045    42.0000 </r>
       <r>   -19.7937    20.8791    43.8891 </r>
       <r>   -19.7032    84.3745    51.6341 </r>
       <r>   -19.6128    66.0862    59.9794 </r>
       <r>   -19.5223     0.0006    60.0001 </r>
       <r>   -19.4318    22.1082    62.0004 </r>
       <r>   -19.3413    65.9030    67.9632 </r>
       <r>   -19.2508    22.6829    70.0523 </r>
       <r>   -19.1604    21.5262    72.0000 </r>
       <r>   -19.0699    22.1045    74.0000 </r>
       <r>   -18.9794    22.0724    75.9971 </r>
       <r>   -18.8889    22.6759    78.0517 </r>
       <r>   -18.7984    65.7424    84.0000 </r>
       <r>   -18.7080    83.7284    91.5757 </r>
       <r>   -18.6175    21.8350    94.0000 </r>
       <r>   -18.5270     0.0000    94.0000 </r>
       <r>   -18.4365    18.5845    95.6815 </r>
       <r>   -18.3461     0.0000    96.0000 </r>
       <r>   -18.2556     0.0000    96.0000 </r>
       <r>   -18.1651     0.0000    96.0000 </r>
       <r>   -18.0746     0.0000    96.0000 </r>
       <r>   -17.9841     0.0000    96.0000 </r>
       <r>   -17.8937     0.0000    96.0000 </r>
       <r>   -17.8032     0.0000    96.0000 </r>
       <r>   -17.7127     0.0000    96.0000 </r>
       <r>   -17.6222     0.0000    96.0000 </r>
       <r>   -17.5317     0.0000    96.0000 </r>
       <r>   -17.4413     0.0000    96.0000 </r>
       <r>   -17.3508     0.0000    96.0000 </r>
       <r>   -17.2603     0.0000    96.0000 </r>
       <r>   -17.1698     0.0000    96.0000 </r>
       <r>   -17.0793     0.0000    96.0000 </r>
       <r>   -16.9889     0.0000    96.0000 </r>
       <r>   -16.8984     0.0000    96.0000 </r>
       <r>   -16.8079     0.0000    96.0000 </r>
       <r>   -16.7174     0.0000    96.0000 </r>
       <r>   -16.6269     0.0000    96.0000 </r>
       <r>   -16.5365     0.0000    96.0000 </r>
       <r>   -16.4460     0.0000    96.0000 </r>
       <r>   -16.3555     0.0000    96.0000 </r>
       <r>   -16.2650     0.0000    96.0000 </r>
       <r>   -16.1746     0.0000    96.0000 </r>
       <r>   -16.0841     0.0000    96.0000 </r>
       <r>   -15.9936     0.0000    96.0000 </r>
       <r>   -15.9031     0.0000    96.0000 </r>
       <r>   -15.8126     0.0000    96.0000 </r>
       <r>   -15.7222     0.0000    96.0000 </r>
       <r>   -15.6317     0.0000    96.0000 </r>
       <r>   -15.5412     0.0000    96.0000 </r>
       <r>   -15.4507     0.0000    96.0000 </r>
       <r>   -15.3602     0.0000    96.0000 </r>
       <r>   -15.2698     0.0000    96.0000 </r>
       <r>   -15.1793     0.0000    96.0000 </r>
       <r>   -15.0888     0.0000    96.0000 </r>
       <r>   -14.9983     0.0000    96.0000 </r>
       <r>   -14.9078     0.0000    96.0000 </r>
       <r>   -14.8174     0.0000    96.0000 </r>
       <r>   -14.7269     0.0000    96.0000 </r>
       <r>   -14.6364     0.0000    96.0000 </r>
       <r>   -14.5459     0.0000    96.0000 </r>
       <r>   -14.4554     0.0000    96.0000 </r>
       <r>   -14.3650     0.0000    96.0000 </r>
       <r>   -14.2745     0.0000    96.0000 </r>
       <r>   -14.1840     0.0000    96.0000 </r>
       <r>   -14.0935    22.1045    98.0000 </r>
       <r>   -14.0031     0.0000    98.0000 </r>
       <r>   -13.9126     0.0000    98.0000 </r>
       <r>   -13.8221     0.0000    98.0000 </r>
       <r>   -13.7316     0.0000    98.0000 </r>
       <r>   -13.6411     0.0000    98.0000 </r>
       <r>   -13.5507     0.0000    98.0000 </r>
       <r>   -13.4602     0.0000    98.0000 </r>
       <r>   -13.3697     0.0000    98.0000 </r>
       <r>   -13.2792     0.0000    98.0000 </r>
       <r>   -13.1887     3.4525    98.3124 </r>
       <r>   -13.0983    60.8284   105.5037 </r>
       <r>   -13.0078    41.1688   109.7367 </r>
       <r>   -12.9173    66.2692   115.9960 </r>
       <r>   -12.8268     0.0098   116.0009 </r>
       <r>   -12.7363    44.1991   120.0000 </r>
       <r>   -12.6459     0.0000   120.0000 </r>
       <r>   -12.5554    22.1045   122.0000 </r>
       <r>   -12.4649    44.1714   125.9966 </r>
       <r>   -12.3744    14.4245   127.3051 </r>
       <r>   -12.2839    43.3099   131.9186 </r>
       <r>   -12.1935     0.2340   132.0212 </r>
       <r>   -12.1030    21.8705   134.0000 </r>
       <r>   -12.0125     0.0000   134.0000 </r>
       <r>   -11.9220     0.0337   134.0030 </r>
       <r>   -11.8316    44.1754   138.0000 </r>
       <r>   -11.7411    75.3436   144.8170 </r>
       <r>   -11.6506    40.0176   149.6208 </r>
       <r>   -11.5601    22.0602   152.0035 </r>
       <r>   -11.4696    22.0663   154.0000 </r>
       <r>   -11.3792    22.1045   156.0000 </r>
       <r>   -11.2887     0.0000   156.0000 </r>
       <r>   -11.1982    12.0315   157.0886 </r>
       <r>   -11.1077    21.9447   159.9855 </r>
       <r>   -11.0172    44.2009   164.0000 </r>
       <r>   -10.9268    22.6032   166.0451 </r>
       <r>   -10.8363    21.6059   168.0000 </r>
       <r>   -10.7458     0.0000   168.0000 </r>
       <r>   -10.6553    22.1044   170.0000 </r>
       <r>   -10.5648     0.0000   170.0000 </r>
       <r>   -10.4744     0.6336   170.0573 </r>
       <r>   -10.3839    43.5754   174.0000 </r>
       <r>   -10.2934    22.1045   176.0000 </r>
       <r>   -10.2029    39.9213   179.6120 </r>
       <r>   -10.1124     0.0000   180.0000 </r>
       <r>   -10.0220     0.0000   180.0000 </r>
       <r>    -9.9315     0.0000   180.0000 </r>
       <r>    -9.8410    22.1045   182.0000 </r>
       <r>    -9.7505    43.5023   185.9361 </r>
       <r>    -9.6601    43.8840   189.9709 </r>
       <r>    -9.5696    21.8549   191.9774 </r>
       <r>    -9.4791    44.3132   196.0096 </r>
       <r>    -9.3886    21.9592   198.0000 </r>
       <r>    -9.2981    46.3299   202.1919 </r>
       <r>    -9.2077   153.5839   217.8961 </r>
       <r>    -9.1172    53.1276   228.8069 </r>
       <r>    -9.0267    43.7002   235.9860 </r>
       <r>    -8.9362    22.1045   238.0000 </r>
       <r>    -8.8457    12.1613   239.1003 </r>
       <r>    -8.7553    22.1045   242.0000 </r>
       <r>    -8.6648     1.4878   242.1346 </r>
       <r>    -8.5743    20.6167   244.0000 </r>
       <r>    -8.4838    30.0011   246.7145 </r>
       <r>    -8.3933    22.1045   250.0000 </r>
       <r>    -8.3029    22.0979   251.9994 </r>
       <r>    -8.2124    22.5978   254.0446 </r>
       <r>    -8.1219    78.1515   263.1079 </r>
       <r>    -8.0314    19.6888   265.7814 </r>
       <r>    -7.9409    42.6352   269.8576 </r>
       <r>    -7.8505    38.5727   273.4900 </r>
       <r>    -7.7600    66.3299   282.0015 </r>
       <r>    -7.6695   105.6555   291.5611 </r>
       <r>    -7.5790    44.2090   298.0000 </r>
       <r>    -7.4886     0.0000   298.0000 </r>
       <r>    -7.3981    66.5946   304.0254 </r>
       <r>    -7.3076    43.9280   308.0000 </r>
       <r>    -7.2171    22.1045   310.0000 </r>
       <r>    -7.1266     0.0000   310.0000 </r>
       <r>    -7.0362     0.0000   310.0000 </r>
       <r>    -6.9457     0.0000   310.0000 </r>
       <r>    -6.8552     0.0318   310.0029 </r>
       <r>    -6.7647    25.3987   312.3009 </r>
       <r>    -6.6742     0.0000   314.0000 </r>
       <r>    -6.5838    44.1887   317.9982 </r>
       <r>    -6.4933    68.7718   324.2224 </r>
       <r>    -6.4028   119.5008   336.8123 </r>
       <r>    -6.3123    60.5633   343.4797 </r>
       <r>    -6.2218     0.0000   344.0000 </r>
       <r>    -6.1314     0.0517   344.0047 </r>
       <r>    -6.0409    22.0528   346.0000 </r>
       <r>    -5.9504    22.0524   347.9953 </r>
       <r>    -5.8599    80.0676   355.2445 </r>
       <r>    -5.7694    40.5161   359.6659 </r>
       <r>    -5.6790     0.0000   360.0000 </r>
       <r>    -5.5885     0.0000   360.0000 </r>
       <r>    -5.4980    22.1044   362.0000 </r>
       <r>    -5.4075     0.0000   362.0000 </r>
       <r>    -5.3171     0.0000   362.0000 </r>
       <r>    -5.2266     4.9407   362.4470 </r>
       <r>    -5.1361    67.7581   370.1307 </r>
       <r>    -5.0456    22.1045   374.0000 </r>
       <r>    -4.9551    23.2385   376.1026 </r>
       <r>    -4.8647    87.2842   384.0000 </r>
       <r>    -4.7742     0.0000   384.0000 </r>
       <r>    -4.6837    22.1045   386.0000 </r>
       <r>    -4.5932     0.0000   386.0000 </r>
       <r>    -4.5027     0.0000   386.0000 </r>
       <r>    -4.4123     0.0000   386.0000 </r>
       <r>    -4.3218     0.0000   386.0000 </r>
       <r>    -4.2313     0.0000   386.0000 </r>
       <r>    -4.1408     0.0000   386.0000 </r>
       <r>    -4.0503     0.0000   386.0000 </r>
       <r>    -3.9599     0.0000   386.0000 </r>
       <r>    -3.8694     0.0000   386.0000 </r>
       <r>    -3.7789     0.0000   386.0000 </r>
       <r>    -3.6884     0.0000   386.0000 </r>
       <r>    -3.5979     0.0000   386.0000 </r>
       <r>    -3.5075     0.0000   386.0000 </r>
       <r>    -3.4170     0.0000   386.0000 </r>
       <r>    -3.3265     0.0000   386.0000 </r>
       <r>    -3.2360     0.0000   386.0000 </r>
       <r>    -3.1456     0.0000   386.0000 </r>
       <r>    -3.0551     0.0000   386.0000 </r>
       <r>    -2.9646     0.0000   386.0000 </r>
       <r>    -2.8741     0.0000   386.0000 </r>
       <r>    -2.7836     0.0000   386.0000 </r>
       <r>    -2.6932     0.0000   386.0000 </r>
       <r>    -2.6027     0.0000   386.0000 </r>
       <r>    -2.5122     0.0000   386.0000 </r>
       <r>    -2.4217     0.0000   386.0000 </r>
       <r>    -2.3312     0.0000   386.0000 </r>
       <r>    -2.2408     0.0000   386.0000 </r>
       <r>    -2.1503     0.0000   386.0000 </r>
       <r>    -2.0598     0.0000   386.0000 </r>
       <r>    -1.9693     0.0000   386.0000 </r>
       <r>    -1.8788     0.0000   386.0000 </r>
       <r>    -1.7884     0.0000   386.0000 </r>
       <r>    -1.6979     0.0000   386.0000 </r>
       <r>    -1.6074     0.0000   386.0000 </r>
       <r>    -1.5169     0.0000   386.0000 </r>
       <r>    -1.4264     0.0000   386.0000 </r>
       <r>    -1.3360     0.0373   386.0034 </r>
       <r>    -1.2455    22.0673   388.0000 </r>
       <r>    -1.1550    22.1045   390.0000 </r>
       <r>    -1.0645     0.0000   390.0000 </r>
       <r>    -0.9741     0.0000   390.0000 </r>
       <r>    -0.8836     0.0000   390.0000 </r>
       <r>    -0.7931     0.0000   390.0000 </r>
       <r>    -0.7026     0.0000   390.0000 </r>
       <r>    -0.6121     0.0000   390.0000 </r>
       <r>    -0.5217     0.0000   390.0000 </r>
       <r>    -0.4312     0.0000   390.0000 </r>
       <r>    -0.3407     0.0000   390.0000 </r>
       <r>    -0.2502     0.0000   390.0000 </r>
       <r>    -0.1597     0.0000   390.0000 </r>
       <r>    -0.0693     0.0000   390.0000 </r>
       <r>     0.0212     0.0000   390.0000 </r>
       <r>     0.1117    22.1045   392.0000 </r>
       <r>     0.2022     7.9017   392.7149 </r>
       <r>     0.2927    69.4758   400.2861 </r>
       <r>     0.3831    41.3010   405.7806 </r>
       <r>     0.4736    46.7195   410.3148 </r>
       <r>     0.5641    22.1045   414.0000 </r>
       <r>     0.6546    22.1045   416.0000 </r>
       <r>     0.7451    17.8876   417.6185 </r>
       <r>     0.8355    92.3768   428.3582 </r>
       <r>     0.9260    44.2021   434.0000 </r>
       <r>     1.0165    28.9145   436.6162 </r>
       <r>     1.1070    23.0802   440.0883 </r>
       <r>     1.1974    21.1289   442.0000 </r>
       <r>     1.2879     0.0000   442.0000 </r>
       <r>     1.3784     0.0000   442.0000 </r>
       <r>     1.4689     0.0021   442.0002 </r>
       <r>     1.5594    22.1025   444.0000 </r>
       <r>     1.6498     0.0087   444.0008 </r>
       <r>     1.7403   104.3745   453.4445 </r>
       <r>     1.8308    44.6074   460.0360 </r>
       <r>     1.9213   135.1383   472.2647 </r>
       <r>     2.0118    22.2114   476.0097 </r>
       <r>     2.1022    39.7070   479.6024 </r>
       <r>     2.1927    65.6510   488.0000 </r>
       <r>     2.2832     0.0000   488.0000 </r>
       <r>     2.3737     0.0000   488.0000 </r>
       <r>     2.4642     0.0000   488.0000 </r>
       <r>     2.5546     0.0000   488.0000 </r>
       <r>     2.6451     0.0000   488.0000 </r>
       <r>     2.7356     0.0000   488.0000 </r>
       <r>     2.8261     0.0000   488.0000 </r>
       <r>     2.9166     0.0000   488.0000 </r>
       <r>     3.0070     0.0000   488.0000 </r>
       <r>     3.0975     0.0000   488.0000 </r>
       <r>     3.1880     0.0000   488.0000 </r>
       <r>     3.2785     0.0000   488.0000 </r>
       <r>     3.3689     0.0000   488.0000 </r>
      </set>
     </set>
    </array>
   </total>
  </dos>
 </calculation>
 <structure name="finalpos" >
  <crystal>
   <varray name="basis" >
    <v>      17.59966831       0.00000000       0.00000000 </v>
    <v>      -8.79983416      15.24175986       0.00000000 </v>
    <v>       0.00000000       0.00000000      19.92151445 </v>
   </varray>
   <i name="volume">   5343.94461817 </i>
   <varray name="rec_basis" >
    <v>       0.05681925       0.03280461       0.00000000 </v>
    <v>       0.00000000       0.06560922       0.00000000 </v>
    <v>       0.00000000       0.00000000       0.05019699 </v>
   </varray>
  </crystal>
  <varray name="positions" >
   <v>       0.99943010       0.00005992       0.50000000 </v>
   <v>       0.14164706       0.99871895       0.50000000 </v>
   <v>       0.28492260       0.99841663       0.50000000 </v>
   <v>       0.42850047       0.99871895       0.50000000 </v>
   <v>       0.57205839       0.00005992       0.50000000 </v>
   <v>       0.71530655       0.00214292       0.50000000 </v>
   <v>       0.85826494       0.00214292       0.50000000 </v>
   <v>       0.00080792       0.14408264       0.50000000 </v>
   <v>       0.14259355       0.14244783       0.50000000 </v>
   <v>       0.28470221       0.14112972       0.50000000 </v>
   <v>       0.42785608       0.14112972       0.50000000 </v>
   <v>       0.57128286       0.14244783       0.50000000 </v>
   <v>       0.71470329       0.14408264       0.50000000 </v>
   <v>       0.85805263       0.14467669       0.50000000 </v>
   <v>       0.00095476       0.28713011       0.50000000 </v>
   <v>       0.14372552       0.28645370       0.50000000 </v>
   <v>       0.28540977       0.28469374       0.50000000 </v>
   <v>       0.42724431       0.28306005       0.50000000 </v>
   <v>       0.57071254       0.28469374       0.50000000 </v>
   <v>       0.71415674       0.28645370       0.50000000 </v>
   <v>       0.85760392       0.28713011       0.50000000 </v>
   <v>       0.00054479       0.42966101       0.50000000 </v>
   <v>       0.14422690       0.42957551       0.50000000 </v>
   <v>       0.28730213       0.42918005       0.50000000 </v>
   <v>       0.42797654       0.42569726       0.50000000 </v>
   <v>       0.56914930       0.42569726       0.50000000 </v>
   <v>       0.71330650       0.42918005       0.50000000 </v>
   <v>       0.85677719       0.42957551       0.50000000 </v>
   <v>       0.99928255       0.57181462       0.50000000 </v>
   <v>       0.14396064       0.57181462       0.50000000 </v>
   <v>       0.28862787       0.57181625       0.50000000 </v>
   <v>       0.43313209       0.57215564       0.50000000 </v>
   <v>       0.71045212       0.57215564       0.50000000 </v>
   <v>       0.85461695       0.57181625       0.50000000 </v>
   <v>       0.99707234       0.71370518       0.50000000 </v>
   <v>       0.14255519       0.71368182       0.50000000 </v>
   <v>       0.28806142       0.71370518       0.50000000 </v>
   <v>       0.43464191       0.71382540       0.50000000 </v>
   <v>       0.58510826       0.71626937       0.50000000 </v>
   <v>       0.70258968       0.71626937       0.50000000 </v>
   <v>       0.85061206       0.71382540       0.50000000 </v>
   <v>       0.99777175       0.85613493       0.50000000 </v>
   <v>       0.14160898       0.85591288       0.50000000 </v>
   <v>       0.28573247       0.85591288       0.50000000 </v>
   <v>       0.42979175       0.85613493       0.50000000 </v>
   <v>       0.57342541       0.85758690       0.50000000 </v>
   <v>       0.71640633       0.86138410       0.50000000 </v>
   <v>       0.85559006       0.85758690       0.50000000 </v>
   <v>       0.04754270       0.09547788       0.50000000 </v>
   <v>       0.18957833       0.09405657       0.50000000 </v>
   <v>       0.33254182       0.09365506       0.50000000 </v>
   <v>       0.47590681       0.09405657       0.50000000 </v>
   <v>       0.61936376       0.09547788       0.50000000 </v>
   <v>       0.76280004       0.09719274       0.50000000 </v>
   <v>       0.90582126       0.09719274       0.50000000 </v>
   <v>       0.04854983       0.23934281       0.50000000 </v>
   <v>       0.19048138       0.23782962       0.50000000 </v>
   <v>       0.33234878       0.23634667       0.50000000 </v>
   <v>       0.47542646       0.23634667       0.50000000 </v>
   <v>       0.61877681       0.23782962       0.50000000 </v>
   <v>       0.76222155       0.23934281       0.50000000 </v>
   <v>       0.90562797       0.23982737       0.50000000 </v>
   <v>       0.04871288       0.38232824       0.50000000 </v>
   <v>       0.19188940       0.38184213       0.50000000 </v>
   <v>       0.33352206       0.38013969       0.50000000 </v>
   <v>       0.47472270       0.37801683       0.50000000 </v>
   <v>       0.61804620       0.38013969       0.50000000 </v>
   <v>       0.76138130       0.38184213       0.50000000 </v>
   <v>       0.90504393       0.38232824       0.50000000 </v>
   <v>       0.04810654       0.52478452       0.50000000 </v>
   <v>       0.19263929       0.52476864       0.50000000 </v>
   <v>       0.33696521       0.52455433       0.50000000 </v>
   <v>       0.47833704       0.52146721       0.50000000 </v>
   <v>       0.61455874       0.52146721       0.50000000 </v>
   <v>       0.75901769       0.52455433       0.50000000 </v>
   <v>       0.90355792       0.52476864       0.50000000 </v>
   <v>       0.04642473       0.66742047       0.50000000 </v>
   <v>       0.19185612       0.66685228       0.50000000 </v>
   <v>       0.33777931       0.66688794       0.50000000 </v>
   <v>       0.48615700       0.66710760       0.50000000 </v>
   <v>       0.75237918       0.66710760       0.50000000 </v>
   <v>       0.90053720       0.66688794       0.50000000 </v>
   <v>       0.04582562       0.80879365       0.50000000 </v>
   <v>       0.19009580       0.80876303       0.50000000 </v>
   <v>       0.33439660       0.80879365       0.50000000 </v>
   <v>       0.47844872       0.80897069       0.50000000 </v>
   <v>       0.62209487       0.81129474       0.50000000 </v>
   <v>       0.76062845       0.81129474       0.50000000 </v>
   <v>       0.90195054       0.80897069       0.50000000 </v>
   <v>       0.04629157       0.95154386       0.50000000 </v>
   <v>       0.18948291       0.95113037       0.50000000 </v>
   <v>       0.33307603       0.95113037       0.50000000 </v>
   <v>       0.47668087       0.95154386       0.50000000 </v>
   <v>       0.62015751       0.95313740       0.50000000 </v>
   <v>       0.76355772       0.95568687       0.50000000 </v>
   <v>       0.90440847       0.95313740       0.50000000 </v>
   <v>       0.56830873       0.56518888       0.50000000 </v>
  </varray>
 </structure>
</modeling>
