<?xml version="1.0" encoding="ISO-8859-1"?>
<modeling>
 <generator>
  <i name="program" type="string">vasp </i>
  <i name="version" type="string">5.4.4.18Apr17-6-g9f103f2a35  </i>
  <i name="subversion" type="string">(build Oct 18 2020 22:16:12) gamma-only         parallel </i>
  <i name="platform" type="string">UA-vaughan-2020a </i>
  <i name="date" type="string">2023 03 21 </i>
  <i name="time" type="string">21:15:44 </i>
 </generator>
 <incar>
  <i type="string" name="PREC">accurate</i>
  <i type="int" name="IALGO">    38</i>
  <i type="logical" name="ADDGRID"> T  </i>
  <i type="int" name="NELMIN">     5</i>
  <i type="int" name="IBRION">    -1</i>
  <i name="EDIFF">      0.00000001</i>
  <i name="EDIFFG">     -0.00000001</i>
  <i type="int" name="NSW">     0</i>
  <i type="int" name="ISIF">     2</i>
  <i name="ENCUT">    500.00000000</i>
  <i type="logical" name="LREAL"> F  </i>
  <i type="int" name="ISMEAR">     0</i>
  <i name="SIGMA">      0.01000000</i>
  <i type="logical" name="LWAVE"> F  </i>
  <i type="logical" name="LCHARG"> F  </i>
  <v type="int" name="KPOINT_BSE">    -1     0     0     0</v>
 </incar>
 <structure name="primitive_cell" >
  <crystal>
   <varray name="basis" >
    <v>      17.59966831       0.00000000       0.00000000 </v>
    <v>      -8.79983416      15.24175986       0.00000000 </v>
    <v>       0.00000000       0.00000000      19.92151445 </v>
   </varray>
   <i name="volume">   5343.94461817 </i>
   <varray name="rec_basis" >
    <v>       0.05681925       0.03280461       0.00000000 </v>
    <v>       0.00000000       0.06560922       0.00000000 </v>
    <v>       0.00000000       0.00000000       0.05019699 </v>
   </varray>
  </crystal>
  <varray name="positions" >
   <v>      -0.00056990       0.00005992      -0.50000000 </v>
   <v>      -0.09559153      -0.04686260      -0.50000000 </v>
   <v>       0.04629157      -0.04845614      -0.50000000 </v>
   <v>       0.04754270       0.09547788      -0.50000000 </v>
   <v>      -0.14173506       0.00214292      -0.50000000 </v>
   <v>       0.14259355       0.14244783      -0.50000000 </v>
   <v>       0.14164706      -0.00128105      -0.50000000 </v>
   <v>      -0.00222825      -0.14386507      -0.50000000 </v>
   <v>      -0.14440994      -0.14241310      -0.50000000 </v>
   <v>       0.00080792       0.14408264      -0.50000000 </v>
   <v>       0.18957833       0.09405657      -0.50000000 </v>
   <v>      -0.09417874       0.09719274      -0.50000000 </v>
   <v>      -0.09804946      -0.19102931      -0.50000000 </v>
   <v>      -0.23644228      -0.04431313      -0.50000000 </v>
   <v>      -0.23937155      -0.18870526      -0.50000000 </v>
   <v>       0.19048138       0.23782962      -0.50000000 </v>
   <v>       0.04582562      -0.19120635      -0.50000000 </v>
   <v>       0.18948291      -0.04886963      -0.50000000 </v>
   <v>       0.04854983       0.23934281      -0.50000000 </v>
   <v>      -0.28359367      -0.13861590      -0.50000000 </v>
   <v>       0.28470221       0.14112972      -0.50000000 </v>
   <v>      -0.14194737       0.14467669      -0.50000000 </v>
   <v>      -0.14938794      -0.28617460      -0.50000000 </v>
   <v>       0.14160898      -0.14408712      -0.50000000 </v>
   <v>       0.14372552       0.28645370      -0.50000000 </v>
   <v>      -0.28469345       0.00214292      -0.50000000 </v>
   <v>      -0.00292766      -0.28629482      -0.50000000 </v>
   <v>       0.28540977       0.28469374      -0.50000000 </v>
   <v>       0.00095476       0.28713011      -0.50000000 </v>
   <v>       0.28492260      -0.00158337      -0.50000000 </v>
   <v>      -0.29741032      -0.28373063      -0.50000000 </v>
   <v>      -0.09946280      -0.33311206      -0.50000000 </v>
   <v>       0.33234878       0.23634667      -0.50000000 </v>
   <v>      -0.23719996       0.09719274      -0.50000000 </v>
   <v>       0.33254182       0.09365506      -0.50000000 </v>
   <v>      -0.09437203       0.23982737      -0.50000000 </v>
   <v>      -0.24762082      -0.33289240      -0.50000000 </v>
   <v>      -0.37790513      -0.18870526      -0.50000000 </v>
   <v>       0.19188940       0.38184213      -0.50000000 </v>
   <v>       0.19009580      -0.19123697      -0.50000000 </v>
   <v>      -0.37984249      -0.04686260      -0.50000000 </v>
   <v>       0.04642473      -0.33314772      -0.50000000 </v>
   <v>       0.33352206       0.38013969      -0.50000000 </v>
   <v>       0.04871288       0.38232824      -0.50000000 </v>
   <v>       0.33307603      -0.04886963      -0.50000000 </v>
   <v>      -0.41489174      -0.28373063      -0.50000000 </v>
   <v>      -0.42657459      -0.14241310      -0.50000000 </v>
   <v>       0.42724431       0.28306005      -0.50000000 </v>
   <v>      -0.14538305      -0.42818375      -0.50000000 </v>
   <v>      -0.28529671       0.14408264      -0.50000000 </v>
   <v>      -0.28954788      -0.42784436      -0.50000000 </v>
   <v>       0.42785608       0.14112972      -0.50000000 </v>
   <v>      -0.14239608       0.28713011      -0.50000000 </v>
   <v>       0.14422690       0.42957551      -0.50000000 </v>
   <v>       0.28730213       0.42918005      -0.50000000 </v>
   <v>       0.14255519      -0.28631818      -0.50000000 </v>
   <v>       0.28573247      -0.14408712      -0.50000000 </v>
   <v>      -0.24098231      -0.47544567      -0.50000000 </v>
   <v>       0.47542646       0.23634667      -0.50000000 </v>
   <v>      -0.23777845       0.23934281      -0.50000000 </v>
   <v>       0.42797654       0.42569726      -0.50000000 </v>
   <v>      -0.42794161       0.00005992      -0.50000000 </v>
   <v>      -0.00071745      -0.42761718      -0.50000000 </v>
   <v>       0.00054479       0.42966101      -0.50000000 </v>
   <v>       0.42850047      -0.00128105      -0.50000000 </v>
   <v>      -0.43169127      -0.43481112      -0.50000000 </v>
   <v>       0.47472270       0.37801683      -0.50000000 </v>
   <v>      -0.09644208      -0.47523136      -0.50000000 </v>
   <v>      -0.38063624       0.09547788      -0.50000000 </v>
   <v>       0.47590681       0.09405657      -0.50000000 </v>
   <v>      -0.09495607       0.38232824      -0.50000000 </v>
   <v>      -0.38544126      -0.47853279      -0.50000000 </v>
   <v>       0.48615700      -0.33289240      -0.50000000 </v>
   <v>       0.47844872      -0.19102931      -0.50000000 </v>
   <v>       0.19263929      -0.47523136      -0.50000000 </v>
   <v>       0.33696521      -0.47544567      -0.50000000 </v>
   <v>       0.19185612      -0.33314772      -0.50000000 </v>
   <v>       0.33439660      -0.19120635      -0.50000000 </v>
   <v>       0.43464191      -0.28617460      -0.50000000 </v>
   <v>      -0.28669350       0.42918005      -0.50000000 </v>
   <v>      -0.42928746       0.28469374      -0.50000000 </v>
   <v>      -0.28584326       0.28645370      -0.50000000 </v>
   <v>       0.28862787      -0.42818375      -0.50000000 </v>
   <v>       0.28806142      -0.28629482      -0.50000000 </v>
   <v>       0.47668087      -0.04845614      -0.50000000 </v>
   <v>       0.47833704      -0.47853279      -0.50000000 </v>
   <v>       0.04810654      -0.47521548      -0.50000000 </v>
   <v>       0.43313209      -0.42784436      -0.50000000 </v>
   <v>       0.42979175      -0.14386507      -0.50000000 </v>
   <v>      -0.43085070       0.42569726      -0.50000000 </v>
   <v>      -0.14322281       0.42957551      -0.50000000 </v>
   <v>      -0.42871714       0.14244783      -0.50000000 </v>
   <v>       0.14396064      -0.42818538      -0.50000000 </v>
   <v>      -0.23861870       0.38184213      -0.50000000 </v>
   <v>      -0.38122319       0.23782962      -0.50000000 </v>
   <v>      -0.38195380       0.38013969      -0.50000000 </v>
   <v>       0.33777931      -0.33311206      -0.50000000 </v>
  </varray>
 </structure>
 <varray name="primitive_index" >
  <v type="int" >        1 </v>
  <v type="int" >       96 </v>
  <v type="int" >       90 </v>
  <v type="int" >       49 </v>
  <v type="int" >        7 </v>
  <v type="int" >        9 </v>
  <v type="int" >        2 </v>
  <v type="int" >       42 </v>
  <v type="int" >       48 </v>
  <v type="int" >        8 </v>
  <v type="int" >       50 </v>
  <v type="int" >       55 </v>
  <v type="int" >       89 </v>
  <v type="int" >       95 </v>
  <v type="int" >       88 </v>
  <v type="int" >       57 </v>
  <v type="int" >       83 </v>
  <v type="int" >       91 </v>
  <v type="int" >       56 </v>
  <v type="int" >       47 </v>
  <v type="int" >       10 </v>
  <v type="int" >       14 </v>
  <v type="int" >       41 </v>
  <v type="int" >       43 </v>
  <v type="int" >       16 </v>
  <v type="int" >        6 </v>
  <v type="int" >       35 </v>
  <v type="int" >       17 </v>
  <v type="int" >       15 </v>
  <v type="int" >        3 </v>
  <v type="int" >       40 </v>
  <v type="int" >       82 </v>
  <v type="int" >       58 </v>
  <v type="int" >       54 </v>
  <v type="int" >       51 </v>
  <v type="int" >       62 </v>
  <v type="int" >       81 </v>
  <v type="int" >       87 </v>
  <v type="int" >       64 </v>
  <v type="int" >       84 </v>
  <v type="int" >       94 </v>
  <v type="int" >       77 </v>
  <v type="int" >       65 </v>
  <v type="int" >       63 </v>
  <v type="int" >       92 </v>
  <v type="int" >       39 </v>
  <v type="int" >       46 </v>
  <v type="int" >       18 </v>
  <v type="int" >       34 </v>
  <v type="int" >       13 </v>
  <v type="int" >       33 </v>
  <v type="int" >       11 </v>
  <v type="int" >       21 </v>
  <v type="int" >       23 </v>
  <v type="int" >       24 </v>
  <v type="int" >       36 </v>
  <v type="int" >       44 </v>
  <v type="int" >       75 </v>
  <v type="int" >       59 </v>
  <v type="int" >       61 </v>
  <v type="int" >       25 </v>
  <v type="int" >        5 </v>
  <v type="int" >       29 </v>
  <v type="int" >       22 </v>
  <v type="int" >        4 </v>
  <v type="int" >       97 </v>
  <v type="int" >       66 </v>
  <v type="int" >       76 </v>
  <v type="int" >       53 </v>
  <v type="int" >       52 </v>
  <v type="int" >       69 </v>
  <v type="int" >       74 </v>
  <v type="int" >       80 </v>
  <v type="int" >       86 </v>
  <v type="int" >       71 </v>
  <v type="int" >       72 </v>
  <v type="int" >       78 </v>
  <v type="int" >       85 </v>
  <v type="int" >       38 </v>
  <v type="int" >       27 </v>
  <v type="int" >       19 </v>
  <v type="int" >       20 </v>
  <v type="int" >       31 </v>
  <v type="int" >       37 </v>
  <v type="int" >       93 </v>
  <v type="int" >       73 </v>
  <v type="int" >       70 </v>
  <v type="int" >       32 </v>
  <v type="int" >       45 </v>
  <v type="int" >       26 </v>
  <v type="int" >       28 </v>
  <v type="int" >       12 </v>
  <v type="int" >       30 </v>
  <v type="int" >       68 </v>
  <v type="int" >       60 </v>
  <v type="int" >       67 </v>
  <v type="int" >       79 </v>
 </varray>
 <kpoints>
  <generation param="Gamma">
   <v type="int" name="divisions">       1        1        1 </v>
   <v name="usershift">      0.00000000       0.00000000       0.00000000 </v>
   <v name="genvec1">      1.00000000      -0.00000000       0.00000000 </v>
   <v name="genvec2">      0.00000000       1.00000000       0.00000000 </v>
   <v name="genvec3">      0.00000000       0.00000000       1.00000000 </v>
   <v name="shift">      0.00000000       0.00000000       0.00000000 </v>
  </generation>
  <varray name="kpointlist" >
   <v>       0.00000000       0.00000000       0.00000000 </v>
  </varray>
  <varray name="weights" >
   <v>       1.00000000 </v>
  </varray>
 </kpoints>
 <parameters>
  <separator name="general" >
   <i type="string" name="SYSTEM">unknown system</i>
   <i type="logical" name="LCOMPAT"> F  </i>
  </separator>
  <separator name="electronic" >
   <i type="string" name="PREC">accura</i>
   <i name="ENMAX">    500.00000000</i>
   <i name="ENAUG">    644.87300000</i>
   <i name="EDIFF">      0.00000001</i>
   <i type="int" name="IALGO">    38</i>
   <i type="int" name="IWAVPR">    10</i>
   <i type="int" name="NBANDS">   244</i>
   <i name="NELECT">    388.00000000</i>
   <i type="int" name="TURBO">     0</i>
   <i type="int" name="IRESTART">     0</i>
   <i type="int" name="NREBOOT">     0</i>
   <i type="int" name="NMIN">     0</i>
   <i name="EREF">      0.00000000</i>
   <separator name="electronic smearing" >
    <i type="int" name="ISMEAR">     0</i>
    <i name="SIGMA">      0.01000000</i>
    <i name="KSPACING">      0.50000000</i>
    <i type="logical" name="KGAMMA"> T  </i>
   </separator>
   <separator name="electronic projectors" >
    <i type="logical" name="LREAL"> F  </i>
    <v name="ROPT">      0.00000000      0.00000000      0.00000000</v>
    <i type="int" name="LMAXPAW">  -100</i>
    <i type="int" name="LMAXMIX">     2</i>
    <i type="logical" name="NLSPLINE"> F  </i>
   </separator>
   <separator name="electronic startup" >
    <i type="int" name="ISTART">     0</i>
    <i type="int" name="ICHARG">     2</i>
    <i type="int" name="INIWAV">     1</i>
   </separator>
   <separator name="electronic spin" >
    <i type="int" name="ISPIN">     1</i>
    <i type="logical" name="LNONCOLLINEAR"> F  </i>
    <v name="MAGMOM">      1.00000000      1.00000000      1.00000000      1.00000000      1.00000000      1.00000000      1.00000000      1.00000000      1.00000000      1.00000000      1.00000000      1.00000000      1.00000000      1.00000000      1.00000000      1.00000000      1.00000000      1.00000000      1.00000000      1.00000000
      1.00000000      1.00000000      1.00000000      1.00000000      1.00000000      1.00000000      1.00000000      1.00000000      1.00000000      1.00000000      1.00000000      1.00000000      1.00000000      1.00000000      1.00000000      1.00000000      1.00000000      1.00000000      1.00000000      1.00000000
      1.00000000      1.00000000      1.00000000      1.00000000      1.00000000      1.00000000      1.00000000      1.00000000      1.00000000      1.00000000      1.00000000      1.00000000      1.00000000      1.00000000      1.00000000      1.00000000      1.00000000      1.00000000      1.00000000      1.00000000
      1.00000000      1.00000000      1.00000000      1.00000000      1.00000000      1.00000000      1.00000000      1.00000000      1.00000000      1.00000000      1.00000000      1.00000000      1.00000000      1.00000000      1.00000000      1.00000000      1.00000000      1.00000000      1.00000000      1.00000000
      1.00000000      1.00000000      1.00000000      1.00000000      1.00000000      1.00000000      1.00000000      1.00000000      1.00000000      1.00000000      1.00000000      1.00000000      1.00000000      1.00000000      1.00000000      1.00000000      1.00000000</v>
    <i name="NUPDOWN">     -1.00000000</i>
    <i type="logical" name="LSORBIT"> F  </i>
    <v name="SAXIS">      0.00000000      0.00000000      1.00000000</v>
    <i type="logical" name="LSPIRAL"> F  </i>
    <v name="QSPIRAL">      0.00000000      0.00000000      0.00000000</v>
    <i type="logical" name="LZEROZ"> F  </i>
   </separator>
   <separator name="electronic exchange-correlation" >
    <i type="logical" name="LASPH"> F  </i>
    <i type="logical" name="LMETAGGA"> F  </i>
   </separator>
   <separator name="electronic convergence" >
    <i type="int" name="NELM">    60</i>
    <i type="int" name="NELMDL">    -5</i>
    <i type="int" name="NELMIN">     5</i>
    <i name="ENINI">    500.00000000</i>
    <separator name="electronic convergence detail" >
     <i type="logical" name="LDIAG"> T  </i>
     <i type="logical" name="LSUBROT"> F  </i>
     <i name="WEIMIN">      0.00000000</i>
     <i name="EBREAK">      0.00000000</i>
     <i name="DEPER">      0.30000000</i>
     <i type="int" name="NRMM">     4</i>
     <i name="TIME">      0.40000000</i>
    </separator>
   </separator>
   <separator name="electronic mixer" >
    <i name="AMIX">      0.40000000</i>
    <i name="BMIX">      1.00000000</i>
    <i name="AMIN">      0.10000000</i>
    <i name="AMIX_MAG">      1.60000000</i>
    <i name="BMIX_MAG">      1.00000000</i>
    <separator name="electronic mixer details" >
     <i type="int" name="IMIX">     4</i>
     <i type="logical" name="MIXFIRST"> F  </i>
     <i type="int" name="MAXMIX">   -45</i>
     <i name="WC">    100.00000000</i>
     <i type="int" name="INIMIX">     1</i>
     <i type="int" name="MIXPRE">     1</i>
     <i type="int" name="MREMOVE">     5</i>
    </separator>
   </separator>
   <separator name="electronic dipolcorrection" >
    <i type="logical" name="LDIPOL"> F  </i>
    <i type="logical" name="LMONO"> F  </i>
    <i type="int" name="IDIPOL">     0</i>
    <i name="EPSILON">      1.00000000</i>
    <v name="DIPOL">   -100.00000000   -100.00000000   -100.00000000</v>
    <i name="EFIELD">      0.00000000</i>
   </separator>
  </separator>
  <separator name="grids" >
   <i type="int" name="NGX">   128</i>
   <i type="int" name="NGY">   128</i>
   <i type="int" name="NGZ">   150</i>
   <i type="int" name="NGXF">   256</i>
   <i type="int" name="NGYF">   256</i>
   <i type="int" name="NGZF">   300</i>
   <i type="logical" name="ADDGRID"> T  </i>
  </separator>
  <separator name="ionic" >
   <i type="int" name="NSW">     0</i>
   <i type="int" name="IBRION">    -1</i>
   <i type="int" name="MDALGO">     0</i>
   <i type="int" name="ISIF">     2</i>
   <i name="PSTRESS">      0.00000000</i>
   <i name="EDIFFG">     -0.00000001</i>
   <i type="int" name="NFREE">     0</i>
   <i name="POTIM">      0.50000000</i>
   <i name="SMASS">     -3.00000000</i>
   <i name="SCALEE">      1.00000000</i>
  </separator>
  <separator name="ionic md" >
   <i name="TEBEG">      0.00010000</i>
   <i name="TEEND">      0.00010000</i>
   <i type="int" name="NBLOCK">     1</i>
   <i type="int" name="KBLOCK">     1</i>
   <i type="int" name="NPACO">   256</i>
   <i name="APACO">     16.00000000</i>
  </separator>
  <separator name="symmetry" >
   <i type="int" name="ISYM">     2</i>
   <i name="SYMPREC">      0.00001000</i>
  </separator>
  <separator name="dos" >
   <i type="int" name="LORBIT">     0</i>
   <v name="RWIGS">     -1.00000000     -1.00000000     -1.00000000</v>
   <i type="int" name="NEDOS">   301</i>
   <i name="EMIN">     10.00000000</i>
   <i name="EMAX">    -10.00000000</i>
   <i name="EFERMI">      0.00000000</i>
  </separator>
  <separator name="writing" >
   <i type="int" name="NWRITE">     2</i>
   <i type="logical" name="LWAVE"> F  </i>
   <i type="logical" name="LDOWNSAMPLE"> F  </i>
   <i type="logical" name="LCHARG"> F  </i>
   <i type="logical" name="LPARD"> F  </i>
   <i type="logical" name="LVTOT"> F  </i>
   <i type="logical" name="LVHAR"> F  </i>
   <i type="logical" name="LELF"> F  </i>
   <i type="logical" name="LOPTICS"> F  </i>
   <v name="STM">      0.00000000      0.00000000      0.00000000      0.00000000      0.00000000      0.00000000      0.00000000</v>
  </separator>
  <separator name="performance" >
   <i type="int" name="NPAR">     4</i>
   <i type="int" name="NSIM">     4</i>
   <i type="int" name="NBLK">    -1</i>
   <i type="logical" name="LPLANE"> T  </i>
   <i type="logical" name="LSCALAPACK"> T  </i>
   <i type="logical" name="LSCAAWARE"> F  </i>
   <i type="logical" name="LSCALU"> F  </i>
   <i type="logical" name="LASYNC"> F  </i>
   <i type="logical" name="LORBITALREAL"> F  </i>
  </separator>
  <separator name="miscellaneous" >
   <i type="int" name="IDIOT">     3</i>
   <i type="int" name="ISPECIAL">     0</i>
   <i type="logical" name="LMUSIC"> F  </i>
   <v name="POMASS">     10.81100000     14.00100000     12.01100000</v>
   <v name="DARWINR">      0.00000000      0.00000000      0.00000000</v>
   <v name="DARWINV">      1.00000000      1.00000000      1.00000000</v>
   <i type="logical" name="LCORR"> T  </i>
  </separator>
  <i type="logical" name="GGA_COMPAT"> T  </i>
  <i type="logical" name="LBERRY"> F  </i>
  <i type="int" name="ICORELEVEL">     0</i>
  <i type="logical" name="LDAU"> F  </i>
  <i type="int" name="I_CONSTRAINED_M">     0</i>
  <separator name="electronic exchange-correlation" >
   <i type="string" name="GGA">--</i>
   <i type="int" name="VOSKOWN">     0</i>
   <i type="logical" name="LHFCALC"> F  </i>
   <i type="string" name="PRECFOCK"></i>
   <i type="logical" name="LSYMGRAD"> F  </i>
   <i type="logical" name="LHFONE"> F  </i>
   <i type="logical" name="LRHFCALC"> F  </i>
   <i type="logical" name="LTHOMAS"> F  </i>
   <i type="logical" name="LMODELHF"> F  </i>
   <i name="ENCUT4O">     -1.00000000</i>
   <i type="int" name="EXXOEP">     0</i>
   <i type="int" name="FOURORBIT">     0</i>
   <i name="AEXX">      0.00000000</i>
   <i name="HFALPHA">      0.00000000</i>
   <i name="MCALPHA">      0.00000000</i>
   <i name="ALDAX">      1.00000000</i>
   <i name="AGGAX">      1.00000000</i>
   <i name="ALDAC">      1.00000000</i>
   <i name="AGGAC">      1.00000000</i>
   <i type="int" name="NKREDX">     1</i>
   <i type="int" name="NKREDY">     1</i>
   <i type="int" name="NKREDZ">     1</i>
   <i type="logical" name="SHIFTRED"> F  </i>
   <i type="logical" name="ODDONLY"> F  </i>
   <i type="logical" name="EVENONLY"> F  </i>
   <i type="int" name="LMAXFOCK">     0</i>
   <i type="int" name="NMAXFOCKAE">     0</i>
   <i type="logical" name="LFOCKAEDFT"> F  </i>
   <i name="HFSCREEN">      0.00000000</i>
   <i name="HFSCREENC">      0.00000000</i>
   <i type="int" name="NBANDSGWLOW">     0</i>
  </separator>
  <separator name="vdW DFT" >
   <i type="logical" name="LUSE_VDW"> F  </i>
   <i name="Zab_VDW">     -0.84910000</i>
   <i name="PARAM1">      0.12340000</i>
   <i name="PARAM2">      1.00000000</i>
   <i name="PARAM3">      0.00000000</i>
  </separator>
  <separator name="model GW" >
   <i type="int" name="MODEL_GW">     0</i>
   <i name="MODEL_EPS0">     33.05532754</i>
   <i name="MODEL_ALPHA">      1.00000000</i>
  </separator>
  <separator name="linear response parameters" >
   <i type="logical" name="LEPSILON"> F  </i>
   <i type="logical" name="LRPA"> F  </i>
   <i type="logical" name="LNABLA"> F  </i>
   <i type="logical" name="LVEL"> F  </i>
   <i type="int" name="KINTER">     0</i>
   <i name="CSHIFT">      0.10000000</i>
   <i name="OMEGAMAX">     -1.00000000</i>
   <i name="DEG_THRESHOLD">      0.00200000</i>
   <i name="RTIME">     -0.10000000</i>
   <i name="WPLASMAI">      0.00000000</i>
   <v name="DFIELD">      0.00000000      0.00000000      0.00000000</v>
   <v name="WPLASMA">      0.00000000      0.00000000      0.00000000      0.00000000      0.00000000      0.00000000      0.00000000      0.00000000      0.00000000</v>
  </separator>
  <separator name="orbital magnetization" >
   <i type="logical" name="NUCIND"> F  </i>
   <v name="MAGPOS">      0.00000000      0.00000000      0.00000000</v>
   <i type="logical" name="LNICSALL"> T  </i>
   <i type="logical" name="ORBITALMAG"> F  </i>
   <i type="logical" name="LMAGBLOCH"> F  </i>
   <i type="logical" name="LCHIMAG"> F  </i>
   <i type="logical" name="LGAUGE"> T  </i>
   <i type="int" name="MAGATOM">     0</i>
   <v name="MAGDIPOL">      0.00000000      0.00000000      0.00000000</v>
   <v name="AVECCONST">      0.00000000      0.00000000      0.00000000</v>
  </separator>
  <separator name="response functions" >
   <i type="logical" name="LADDER"> F  </i>
   <i type="logical" name="LRPAFORCE"> F  </i>
   <i type="logical" name="LFXC"> F  </i>
   <i type="logical" name="LHARTREE"> T  </i>
   <i type="int" name="IBSE">     0</i>
   <v type="int" name="KPOINT">    -1     0     0     0</v>
   <i type="logical" name="LTCTE"> F  </i>
   <i type="logical" name="LTETE"> F  </i>
   <i type="logical" name="LTRIPLET"> F  </i>
   <i type="logical" name="LFXCEPS"> F  </i>
   <i type="logical" name="LFXHEG"> F  </i>
   <i type="int" name="NATURALO">     2</i>
   <i type="logical" name="L2ORDER"> F  </i>
   <i type="logical" name="LMP2LT"> F  </i>
   <i type="logical" name="LUSEW"> F  </i>
   <i name="ENCUTGW">     -2.00000000</i>
   <i name="ENCUTGWSOFT">     -2.00000000</i>
   <i name="ENCUTLF">     -1.00000000</i>
   <i type="int" name="LMAXMP2">    -1</i>
   <i name="SCISSOR">      0.00000000</i>
   <i type="int" name="NOMEGA">     0</i>
   <i type="int" name="NOMEGAR">     0</i>
   <i type="int" name="NBANDSGW">    -1</i>
   <i type="int" name="NBANDSO">    -1</i>
   <i type="int" name="NBANDSV">    -1</i>
   <i type="int" name="NELM">     1</i>
   <i type="int" name="NELMHF">     1</i>
   <i type="int" name="DIM">     3</i>
   <i type="int" name="ANTIRES">     0</i>
   <i name="OMEGAMAX">    -30.00000000</i>
   <i name="OMEGAMIN">    -30.00000000</i>
   <i name="OMEGATL">   -200.00000000</i>
   <i type="int" name="OMEGAGRID">   140</i>
   <i name="CSHIFT">     -0.10000000</i>
   <i type="logical" name="SELFENERGY"> F  </i>
   <i type="logical" name="LSPECTRAL"> F  </i>
   <i type="logical" name="LSPECTRALGW"> F  </i>
   <i type="logical" name="LSINGLES"> F  </i>
   <i type="logical" name="LFERMIGW"> F  </i>
   <i type="logical" name="ODDONLYGW"> F  </i>
   <i type="logical" name="EVENONLYGW"> F  </i>
   <i type="int" name="NKREDLFX">     1</i>
   <i type="int" name="NKREDLFY">     1</i>
   <i type="int" name="NKREDLFZ">     1</i>
   <i type="int" name="MAXMEM">  2800</i>
   <i type="int" name="TELESCOPE">     0</i>
   <i type="int" name="TAUPAR">     1</i>
   <i type="int" name="OMEGAPAR">    -1</i>
   <i name="LAMBDA">      1.00000000</i>
  </separator>
  <separator name="External order field" >
   <i name="OFIELD_KAPPA">      0.00000000</i>
   <v name="OFIELD_K">      0.00000000      0.00000000      0.00000000</v>
   <i name="OFIELD_Q6_NEAR">      0.00000000</i>
   <i name="OFIELD_Q6_FAR">      0.00000000</i>
   <i name="OFIELD_A">      0.00000000</i>
  </separator>
 </parameters>
 <atominfo>
  <atoms>      97 </atoms>
  <types>       3 </types>
  <array name="atoms" >
   <dimension dim="1">ion</dimension>
   <field type="string">element</field>
   <field type="int">atomtype</field>
   <set>
    <rc><c>B </c><c>   1</c></rc>
    <rc><c>B </c><c>   1</c></rc>
    <rc><c>B </c><c>   1</c></rc>
    <rc><c>B </c><c>   1</c></rc>
    <rc><c>B </c><c>   1</c></rc>
    <rc><c>B </c><c>   1</c></rc>
    <rc><c>B </c><c>   1</c></rc>
    <rc><c>B </c><c>   1</c></rc>
    <rc><c>B </c><c>   1</c></rc>
    <rc><c>B </c><c>   1</c></rc>
    <rc><c>B </c><c>   1</c></rc>
    <rc><c>B </c><c>   1</c></rc>
    <rc><c>B </c><c>   1</c></rc>
    <rc><c>B </c><c>   1</c></rc>
    <rc><c>B </c><c>   1</c></rc>
    <rc><c>B </c><c>   1</c></rc>
    <rc><c>B </c><c>   1</c></rc>
    <rc><c>B </c><c>   1</c></rc>
    <rc><c>B </c><c>   1</c></rc>
    <rc><c>B </c><c>   1</c></rc>
    <rc><c>B </c><c>   1</c></rc>
    <rc><c>B </c><c>   1</c></rc>
    <rc><c>B </c><c>   1</c></rc>
    <rc><c>B </c><c>   1</c></rc>
    <rc><c>B </c><c>   1</c></rc>
    <rc><c>B </c><c>   1</c></rc>
    <rc><c>B </c><c>   1</c></rc>
    <rc><c>B </c><c>   1</c></rc>
    <rc><c>B </c><c>   1</c></rc>
    <rc><c>B </c><c>   1</c></rc>
    <rc><c>B </c><c>   1</c></rc>
    <rc><c>B </c><c>   1</c></rc>
    <rc><c>B </c><c>   1</c></rc>
    <rc><c>B </c><c>   1</c></rc>
    <rc><c>B </c><c>   1</c></rc>
    <rc><c>B </c><c>   1</c></rc>
    <rc><c>B </c><c>   1</c></rc>
    <rc><c>B </c><c>   1</c></rc>
    <rc><c>B </c><c>   1</c></rc>
    <rc><c>B </c><c>   1</c></rc>
    <rc><c>B </c><c>   1</c></rc>
    <rc><c>B </c><c>   1</c></rc>
    <rc><c>B </c><c>   1</c></rc>
    <rc><c>B </c><c>   1</c></rc>
    <rc><c>B </c><c>   1</c></rc>
    <rc><c>B </c><c>   1</c></rc>
    <rc><c>B </c><c>   1</c></rc>
    <rc><c>B </c><c>   1</c></rc>
    <rc><c>N </c><c>   2</c></rc>
    <rc><c>N </c><c>   2</c></rc>
    <rc><c>N </c><c>   2</c></rc>
    <rc><c>N </c><c>   2</c></rc>
    <rc><c>N </c><c>   2</c></rc>
    <rc><c>N </c><c>   2</c></rc>
    <rc><c>N </c><c>   2</c></rc>
    <rc><c>N </c><c>   2</c></rc>
    <rc><c>N </c><c>   2</c></rc>
    <rc><c>N </c><c>   2</c></rc>
    <rc><c>N </c><c>   2</c></rc>
    <rc><c>N </c><c>   2</c></rc>
    <rc><c>N </c><c>   2</c></rc>
    <rc><c>N </c><c>   2</c></rc>
    <rc><c>N </c><c>   2</c></rc>
    <rc><c>N </c><c>   2</c></rc>
    <rc><c>N </c><c>   2</c></rc>
    <rc><c>N </c><c>   2</c></rc>
    <rc><c>N </c><c>   2</c></rc>
    <rc><c>N </c><c>   2</c></rc>
    <rc><c>N </c><c>   2</c></rc>
    <rc><c>N </c><c>   2</c></rc>
    <rc><c>N </c><c>   2</c></rc>
    <rc><c>N </c><c>   2</c></rc>
    <rc><c>N </c><c>   2</c></rc>
    <rc><c>N </c><c>   2</c></rc>
    <rc><c>N </c><c>   2</c></rc>
    <rc><c>N </c><c>   2</c></rc>
    <rc><c>N </c><c>   2</c></rc>
    <rc><c>N </c><c>   2</c></rc>
    <rc><c>N </c><c>   2</c></rc>
    <rc><c>N </c><c>   2</c></rc>
    <rc><c>N </c><c>   2</c></rc>
    <rc><c>N </c><c>   2</c></rc>
    <rc><c>N </c><c>   2</c></rc>
    <rc><c>N </c><c>   2</c></rc>
    <rc><c>N </c><c>   2</c></rc>
    <rc><c>N </c><c>   2</c></rc>
    <rc><c>N </c><c>   2</c></rc>
    <rc><c>N </c><c>   2</c></rc>
    <rc><c>N </c><c>   2</c></rc>
    <rc><c>N </c><c>   2</c></rc>
    <rc><c>N </c><c>   2</c></rc>
    <rc><c>N </c><c>   2</c></rc>
    <rc><c>N </c><c>   2</c></rc>
    <rc><c>N </c><c>   2</c></rc>
    <rc><c>N </c><c>   2</c></rc>
    <rc><c>N </c><c>   2</c></rc>
    <rc><c>C </c><c>   3</c></rc>
   </set>
  </array>
  <array name="atomtypes" >
   <dimension dim="1">type</dimension>
   <field type="int">atomspertype</field>
   <field type="string">element</field>
   <field>mass</field>
   <field>valence</field>
   <field type="string">pseudopotential</field>
   <set>
    <rc><c>  48</c><c>B </c><c>     10.81100000</c><c>      3.00000000</c><c>  PAW_PBE B 06Sep2000                   </c></rc>
    <rc><c>  48</c><c>N </c><c>     14.00100000</c><c>      5.00000000</c><c>  PAW_PBE N 08Apr2002                   </c></rc>
    <rc><c>   1</c><c>C </c><c>     12.01100000</c><c>      4.00000000</c><c>  PAW_PBE C 08Apr2002                   </c></rc>
   </set>
  </array>
 </atominfo>
 <structure name="initialpos" >
  <crystal>
   <varray name="basis" >
    <v>      17.59966831       0.00000000       0.00000000 </v>
    <v>      -8.79983416      15.24175986       0.00000000 </v>
    <v>       0.00000000       0.00000000      19.92151445 </v>
   </varray>
   <i name="volume">   5343.94461817 </i>
   <varray name="rec_basis" >
    <v>       0.05681925       0.03280461       0.00000000 </v>
    <v>       0.00000000       0.06560922       0.00000000 </v>
    <v>       0.00000000       0.00000000       0.05019699 </v>
   </varray>
  </crystal>
  <varray name="positions" >
   <v>       0.99943010       0.00005992       0.50000000 </v>
   <v>       0.14164706       0.99871895       0.50000000 </v>
   <v>       0.28492260       0.99841663       0.50000000 </v>
   <v>       0.42850047       0.99871895       0.50000000 </v>
   <v>       0.57205839       0.00005992       0.50000000 </v>
   <v>       0.71530655       0.00214292       0.50000000 </v>
   <v>       0.85826494       0.00214292       0.50000000 </v>
   <v>       0.00080792       0.14408264       0.50000000 </v>
   <v>       0.14259355       0.14244783       0.50000000 </v>
   <v>       0.28470221       0.14112972       0.50000000 </v>
   <v>       0.42785608       0.14112972       0.50000000 </v>
   <v>       0.57128286       0.14244783       0.50000000 </v>
   <v>       0.71470329       0.14408264       0.50000000 </v>
   <v>       0.85805263       0.14467669       0.50000000 </v>
   <v>       0.00095476       0.28713011       0.50000000 </v>
   <v>       0.14372552       0.28645370       0.50000000 </v>
   <v>       0.28540977       0.28469374       0.50000000 </v>
   <v>       0.42724431       0.28306005       0.50000000 </v>
   <v>       0.57071254       0.28469374       0.50000000 </v>
   <v>       0.71415674       0.28645370       0.50000000 </v>
   <v>       0.85760392       0.28713011       0.50000000 </v>
   <v>       0.00054479       0.42966101       0.50000000 </v>
   <v>       0.14422690       0.42957551       0.50000000 </v>
   <v>       0.28730213       0.42918005       0.50000000 </v>
   <v>       0.42797654       0.42569726       0.50000000 </v>
   <v>       0.56914930       0.42569726       0.50000000 </v>
   <v>       0.71330650       0.42918005       0.50000000 </v>
   <v>       0.85677719       0.42957551       0.50000000 </v>
   <v>       0.99928255       0.57238282       0.50000000 </v>
   <v>       0.14396064       0.57181462       0.50000000 </v>
   <v>       0.28862787       0.57181625       0.50000000 </v>
   <v>       0.43313209       0.57215564       0.50000000 </v>
   <v>       0.71045212       0.57215564       0.50000000 </v>
   <v>       0.85461695       0.57181625       0.50000000 </v>
   <v>       0.99707234       0.71370518       0.50000000 </v>
   <v>       0.14255519       0.71368182       0.50000000 </v>
   <v>       0.28806142       0.71370518       0.50000000 </v>
   <v>       0.43464191       0.71382540       0.50000000 </v>
   <v>       0.58510826       0.71626937       0.50000000 </v>
   <v>       0.70258968       0.71626937       0.50000000 </v>
   <v>       0.85061206       0.71382540       0.50000000 </v>
   <v>       0.99777175       0.85613493       0.50000000 </v>
   <v>       0.14160898       0.85591288       0.50000000 </v>
   <v>       0.28573247       0.85591288       0.50000000 </v>
   <v>       0.42979175       0.85613493       0.50000000 </v>
   <v>       0.57342541       0.85758690       0.50000000 </v>
   <v>       0.71640633       0.86138410       0.50000000 </v>
   <v>       0.85559006       0.85758690       0.50000000 </v>
   <v>       0.04754270       0.09547788       0.50000000 </v>
   <v>       0.18957833       0.09405657       0.50000000 </v>
   <v>       0.33254182       0.09365506       0.50000000 </v>
   <v>       0.47590681       0.09405657       0.50000000 </v>
   <v>       0.61936376       0.09547788       0.50000000 </v>
   <v>       0.76280004       0.09719274       0.50000000 </v>
   <v>       0.90582126       0.09719274       0.50000000 </v>
   <v>       0.04854983       0.23934281       0.50000000 </v>
   <v>       0.19048138       0.23782962       0.50000000 </v>
   <v>       0.33234878       0.23634667       0.50000000 </v>
   <v>       0.47542646       0.23634667       0.50000000 </v>
   <v>       0.61877681       0.23782962       0.50000000 </v>
   <v>       0.76222155       0.23934281       0.50000000 </v>
   <v>       0.90562797       0.23982737       0.50000000 </v>
   <v>       0.04871288       0.38232824       0.50000000 </v>
   <v>       0.19188940       0.38184213       0.50000000 </v>
   <v>       0.33352206       0.38013969       0.50000000 </v>
   <v>       0.47472270       0.37801683       0.50000000 </v>
   <v>       0.61804620       0.38013969       0.50000000 </v>
   <v>       0.76138130       0.38184213       0.50000000 </v>
   <v>       0.90504393       0.38232824       0.50000000 </v>
   <v>       0.04810654       0.52478452       0.50000000 </v>
   <v>       0.19263929       0.52476864       0.50000000 </v>
   <v>       0.33696521       0.52455433       0.50000000 </v>
   <v>       0.47833704       0.52146721       0.50000000 </v>
   <v>       0.61455874       0.52146721       0.50000000 </v>
   <v>       0.75901769       0.52455433       0.50000000 </v>
   <v>       0.90355792       0.52476864       0.50000000 </v>
   <v>       0.04642473       0.66685228       0.50000000 </v>
   <v>       0.19185612       0.66685228       0.50000000 </v>
   <v>       0.33777931       0.66688794       0.50000000 </v>
   <v>       0.48615700       0.66710760       0.50000000 </v>
   <v>       0.75237918       0.66710760       0.50000000 </v>
   <v>       0.90053720       0.66688794       0.50000000 </v>
   <v>       0.04582562       0.80879365       0.50000000 </v>
   <v>       0.19009580       0.80876303       0.50000000 </v>
   <v>       0.33439660       0.80879365       0.50000000 </v>
   <v>       0.47844872       0.80897069       0.50000000 </v>
   <v>       0.62209487       0.81129474       0.50000000 </v>
   <v>       0.76062845       0.81129474       0.50000000 </v>
   <v>       0.90195054       0.80897069       0.50000000 </v>
   <v>       0.04629157       0.95154386       0.50000000 </v>
   <v>       0.18948291       0.95113037       0.50000000 </v>
   <v>       0.33307603       0.95113037       0.50000000 </v>
   <v>       0.47668087       0.95154386       0.50000000 </v>
   <v>       0.62015751       0.95313740       0.50000000 </v>
   <v>       0.76355772       0.95568687       0.50000000 </v>
   <v>       0.90440847       0.95313740       0.50000000 </v>
   <v>       0.56830873       0.56518888       0.50000000 </v>
  </varray>
 </structure>
 <calculation>
  <scstep>
   <time name="dav">    2.35    2.37</time>
   <time name="total">    2.72    2.82</time>
   <energy>
    <i name="alphaZ">    156.50993408 </i>
    <i name="ewald">  58206.78970415 </i>
    <i name="hartreedc"> -70374.19178610 </i>
    <i name="XCdc">   1302.10918787 </i>
    <i name="pawpsdc">  12033.28670802 </i>
    <i name="pawaedc"> -12049.96799276 </i>
    <i name="eentropy">     -0.00000000 </i>
    <i name="bandstr">   -904.55966456 </i>
    <i name="atom">  16260.93880140 </i>
    <i name="e_fr_energy">   4630.91489209 </i>
    <i name="e_wo_entrp">   4630.91489209 </i>
    <i name="e_0_energy">   4630.91489209 </i>
   </energy>
  </scstep>
  <scstep>
   <time name="dav">    2.99    3.03</time>
   <time name="total">    2.99    3.03</time>
   <energy>
    <i name="e_fr_energy">    216.59390926 </i>
    <i name="e_wo_entrp">    216.59390926 </i>
    <i name="e_0_energy">    216.59390926 </i>
   </energy>
  </scstep>
  <scstep>
   <time name="dav">    2.48    2.51</time>
   <time name="total">    2.48    2.51</time>
   <energy>
    <i name="e_fr_energy">   -867.50827774 </i>
    <i name="e_wo_entrp">   -867.50827774 </i>
    <i name="e_0_energy">   -867.50827774 </i>
   </energy>
  </scstep>
  <scstep>
   <time name="dav">    2.47    2.50</time>
   <time name="total">    2.47    2.50</time>
   <energy>
    <i name="e_fr_energy">   -934.20272623 </i>
    <i name="e_wo_entrp">   -934.20272623 </i>
    <i name="e_0_energy">   -934.20272623 </i>
   </energy>
  </scstep>
  <scstep>
   <time name="dav">    2.50    2.52</time>
   <time name="total">    2.94    2.97</time>
   <energy>
    <i name="e_fr_energy">   -935.77770066 </i>
    <i name="e_wo_entrp">   -935.77770066 </i>
    <i name="e_0_energy">   -935.77770066 </i>
   </energy>
  </scstep>
  <scstep>
   <time name="dav">    2.33    2.35</time>
   <time name="total">    3.13    3.16</time>
   <energy>
    <i name="e_fr_energy">   -858.73267977 </i>
    <i name="e_wo_entrp">   -858.73267977 </i>
    <i name="e_0_energy">   -858.73267977 </i>
   </energy>
  </scstep>
  <scstep>
   <time name="dav">    2.36    2.38</time>
   <time name="total">    3.16    3.20</time>
   <energy>
    <i name="e_fr_energy">   -850.19359108 </i>
    <i name="e_wo_entrp">   -850.19359108 </i>
    <i name="e_0_energy">   -850.19359108 </i>
   </energy>
  </scstep>
  <scstep>
   <time name="dav">    2.28    2.30</time>
   <time name="total">    3.08    3.12</time>
   <energy>
    <i name="e_fr_energy">   -845.92649491 </i>
    <i name="e_wo_entrp">   -845.92649399 </i>
    <i name="e_0_energy">   -845.92649445 </i>
   </energy>
  </scstep>
  <scstep>
   <time name="dav">    2.30    2.32</time>
   <time name="total">    3.11    3.14</time>
   <energy>
    <i name="e_fr_energy">   -845.80089810 </i>
    <i name="e_wo_entrp">   -845.80089810 </i>
    <i name="e_0_energy">   -845.80089810 </i>
   </energy>
  </scstep>
  <scstep>
   <time name="dav">    2.39    2.41</time>
   <time name="total">    3.19    3.23</time>
   <energy>
    <i name="e_fr_energy">   -845.63941610 </i>
    <i name="e_wo_entrp">   -845.63941610 </i>
    <i name="e_0_energy">   -845.63941610 </i>
   </energy>
  </scstep>
  <scstep>
   <time name="dav">    2.23    2.25</time>
   <time name="total">    3.04    3.07</time>
   <energy>
    <i name="e_fr_energy">   -845.58700316 </i>
    <i name="e_wo_entrp">   -845.58700316 </i>
    <i name="e_0_energy">   -845.58700316 </i>
   </energy>
  </scstep>
  <scstep>
   <time name="dav">    2.25    2.27</time>
   <time name="total">    3.06    3.09</time>
   <energy>
    <i name="e_fr_energy">   -845.57414293 </i>
    <i name="e_wo_entrp">   -845.57414293 </i>
    <i name="e_0_energy">   -845.57414293 </i>
   </energy>
  </scstep>
  <scstep>
   <time name="dav">    2.24    2.26</time>
   <time name="total">    3.05    3.08</time>
   <energy>
    <i name="e_fr_energy">   -845.58472868 </i>
    <i name="e_wo_entrp">   -845.58472868 </i>
    <i name="e_0_energy">   -845.58472868 </i>
   </energy>
  </scstep>
  <scstep>
   <time name="dav">    2.23    2.25</time>
   <time name="total">    3.04    3.07</time>
   <energy>
    <i name="e_fr_energy">   -845.59433311 </i>
    <i name="e_wo_entrp">   -845.59433311 </i>
    <i name="e_0_energy">   -845.59433311 </i>
   </energy>
  </scstep>
  <scstep>
   <time name="dav">    2.18    2.20</time>
   <time name="total">    2.99    3.02</time>
   <energy>
    <i name="e_fr_energy">   -845.62562652 </i>
    <i name="e_wo_entrp">   -845.62562652 </i>
    <i name="e_0_energy">   -845.62562652 </i>
   </energy>
  </scstep>
  <scstep>
   <time name="dav">    2.21    2.22</time>
   <time name="total">    3.03    3.06</time>
   <energy>
    <i name="e_fr_energy">   -845.64197870 </i>
    <i name="e_wo_entrp">   -845.64197870 </i>
    <i name="e_0_energy">   -845.64197870 </i>
   </energy>
  </scstep>
  <scstep>
   <time name="dav">    2.28    2.30</time>
   <time name="total">    3.09    3.13</time>
   <energy>
    <i name="e_fr_energy">   -845.64823374 </i>
    <i name="e_wo_entrp">   -845.64823374 </i>
    <i name="e_0_energy">   -845.64823374 </i>
   </energy>
  </scstep>
  <scstep>
   <time name="dav">    2.21    2.23</time>
   <time name="total">    3.02    3.05</time>
   <energy>
    <i name="e_fr_energy">   -845.65140963 </i>
    <i name="e_wo_entrp">   -845.65140963 </i>
    <i name="e_0_energy">   -845.65140963 </i>
   </energy>
  </scstep>
  <scstep>
   <time name="dav">    2.30    2.32</time>
   <time name="total">    3.12    3.15</time>
   <energy>
    <i name="e_fr_energy">   -845.65242795 </i>
    <i name="e_wo_entrp">   -845.65242795 </i>
    <i name="e_0_energy">   -845.65242795 </i>
   </energy>
  </scstep>
  <scstep>
   <time name="dav">    2.23    2.25</time>
   <time name="total">    3.05    3.08</time>
   <energy>
    <i name="e_fr_energy">   -845.65284794 </i>
    <i name="e_wo_entrp">   -845.65284794 </i>
    <i name="e_0_energy">   -845.65284794 </i>
   </energy>
  </scstep>
  <scstep>
   <time name="dav">    2.25    2.27</time>
   <time name="total">    3.06    3.09</time>
   <energy>
    <i name="e_fr_energy">   -845.65304941 </i>
    <i name="e_wo_entrp">   -845.65304941 </i>
    <i name="e_0_energy">   -845.65304941 </i>
   </energy>
  </scstep>
  <scstep>
   <time name="dav">    2.19    2.20</time>
   <time name="total">    3.00    3.03</time>
   <energy>
    <i name="e_fr_energy">   -845.65316305 </i>
    <i name="e_wo_entrp">   -845.65316305 </i>
    <i name="e_0_energy">   -845.65316305 </i>
   </energy>
  </scstep>
  <scstep>
   <time name="dav">    2.27    2.29</time>
   <time name="total">    3.09    3.12</time>
   <energy>
    <i name="e_fr_energy">   -845.65324114 </i>
    <i name="e_wo_entrp">   -845.65324114 </i>
    <i name="e_0_energy">   -845.65324114 </i>
   </energy>
  </scstep>
  <scstep>
   <time name="dav">    2.28    2.30</time>
   <time name="total">    3.10    3.13</time>
   <energy>
    <i name="e_fr_energy">   -845.65327916 </i>
    <i name="e_wo_entrp">   -845.65327916 </i>
    <i name="e_0_energy">   -845.65327916 </i>
   </energy>
  </scstep>
  <scstep>
   <time name="dav">    2.24    2.26</time>
   <time name="total">    3.06    3.09</time>
   <energy>
    <i name="e_fr_energy">   -845.65329767 </i>
    <i name="e_wo_entrp">   -845.65329767 </i>
    <i name="e_0_energy">   -845.65329767 </i>
   </energy>
  </scstep>
  <scstep>
   <time name="dav">    2.65    2.72</time>
   <time name="total">    3.50    3.59</time>
   <energy>
    <i name="e_fr_energy">   -845.65331426 </i>
    <i name="e_wo_entrp">   -845.65331426 </i>
    <i name="e_0_energy">   -845.65331426 </i>
   </energy>
  </scstep>
  <scstep>
   <time name="dav">    2.20    2.22</time>
   <time name="total">    3.03    3.07</time>
   <energy>
    <i name="e_fr_energy">   -845.65331756 </i>
    <i name="e_wo_entrp">   -845.65331756 </i>
    <i name="e_0_energy">   -845.65331756 </i>
   </energy>
  </scstep>
  <scstep>
   <time name="dav">    1.92    1.94</time>
   <time name="total">    2.74    2.78</time>
   <energy>
    <i name="e_fr_energy">   -845.65331885 </i>
    <i name="e_wo_entrp">   -845.65331885 </i>
    <i name="e_0_energy">   -845.65331885 </i>
   </energy>
  </scstep>
  <scstep>
   <time name="dav">    1.74    1.76</time>
   <time name="total">    2.57    2.60</time>
   <energy>
    <i name="e_fr_energy">   -845.65331913 </i>
    <i name="e_wo_entrp">   -845.65331913 </i>
    <i name="e_0_energy">   -845.65331913 </i>
   </energy>
  </scstep>
  <scstep>
   <time name="dav">    1.69    1.71</time>
   <time name="total">    2.52    2.55</time>
   <energy>
    <i name="e_fr_energy">   -845.65331923 </i>
    <i name="e_wo_entrp">   -845.65331923 </i>
    <i name="e_0_energy">   -845.65331923 </i>
   </energy>
  </scstep>
  <scstep>
   <time name="dav">    1.67    1.68</time>
   <time name="total">    2.49    2.53</time>
   <energy>
    <i name="e_fr_energy">   -845.65331929 </i>
    <i name="e_wo_entrp">   -845.65331929 </i>
    <i name="e_0_energy">   -845.65331929 </i>
   </energy>
  </scstep>
  <scstep>
   <time name="dav">    1.72    1.74</time>
   <time name="total">    2.55    2.58</time>
   <energy>
    <i name="e_fr_energy">   -845.65331932 </i>
    <i name="e_wo_entrp">   -845.65331932 </i>
    <i name="e_0_energy">   -845.65331932 </i>
   </energy>
  </scstep>
  <scstep>
   <time name="dav">    1.80    1.82</time>
   <time name="total">    2.17    2.20</time>
   <energy>
    <i name="alphaZ">    156.50993408 </i>
    <i name="ewald">  58206.78970415 </i>
    <i name="hartreedc"> -72314.29120284 </i>
    <i name="XCdc">   1369.72508931 </i>
    <i name="pawpsdc">  44019.26601135 </i>
    <i name="pawaedc"> -44054.60811890 </i>
    <i name="eentropy">     -0.00000000 </i>
    <i name="bandstr">  -4489.98353787 </i>
    <i name="atom">  16260.93880140 </i>
    <i name="e_fr_energy">   -845.65331932 </i>
    <i name="e_wo_entrp">   -845.65331932 </i>
    <i name="e_0_energy">   -845.65331932 </i>
   </energy>
  </scstep>
  <structure>
   <crystal>
    <varray name="basis" >
     <v>      17.59966831       0.00000000       0.00000000 </v>
     <v>      -8.79983416      15.24175986       0.00000000 </v>
     <v>       0.00000000       0.00000000      19.92151445 </v>
    </varray>
    <i name="volume">   5343.94461817 </i>
    <varray name="rec_basis" >
     <v>       0.05681925       0.03280461       0.00000000 </v>
     <v>       0.00000000       0.06560922       0.00000000 </v>
     <v>       0.00000000       0.00000000       0.05019699 </v>
    </varray>
   </crystal>
   <varray name="positions" >
    <v>       0.99943010       0.00005992       0.50000000 </v>
    <v>       0.14164706       0.99871895       0.50000000 </v>
    <v>       0.28492260       0.99841663       0.50000000 </v>
    <v>       0.42850047       0.99871895       0.50000000 </v>
    <v>       0.57205839       0.00005992       0.50000000 </v>
    <v>       0.71530655       0.00214292       0.50000000 </v>
    <v>       0.85826494       0.00214292       0.50000000 </v>
    <v>       0.00080792       0.14408264       0.50000000 </v>
    <v>       0.14259355       0.14244783       0.50000000 </v>
    <v>       0.28470221       0.14112972       0.50000000 </v>
    <v>       0.42785608       0.14112972       0.50000000 </v>
    <v>       0.57128286       0.14244783       0.50000000 </v>
    <v>       0.71470329       0.14408264       0.50000000 </v>
    <v>       0.85805263       0.14467669       0.50000000 </v>
    <v>       0.00095476       0.28713011       0.50000000 </v>
    <v>       0.14372552       0.28645370       0.50000000 </v>
    <v>       0.28540977       0.28469374       0.50000000 </v>
    <v>       0.42724431       0.28306005       0.50000000 </v>
    <v>       0.57071254       0.28469374       0.50000000 </v>
    <v>       0.71415674       0.28645370       0.50000000 </v>
    <v>       0.85760392       0.28713011       0.50000000 </v>
    <v>       0.00054479       0.42966101       0.50000000 </v>
    <v>       0.14422690       0.42957551       0.50000000 </v>
    <v>       0.28730213       0.42918005       0.50000000 </v>
    <v>       0.42797654       0.42569726       0.50000000 </v>
    <v>       0.56914930       0.42569726       0.50000000 </v>
    <v>       0.71330650       0.42918005       0.50000000 </v>
    <v>       0.85677719       0.42957551       0.50000000 </v>
    <v>       0.99928255       0.57238282       0.50000000 </v>
    <v>       0.14396064       0.57181462       0.50000000 </v>
    <v>       0.28862787       0.57181625       0.50000000 </v>
    <v>       0.43313209       0.57215564       0.50000000 </v>
    <v>       0.71045212       0.57215564       0.50000000 </v>
    <v>       0.85461695       0.57181625       0.50000000 </v>
    <v>       0.99707234       0.71370518       0.50000000 </v>
    <v>       0.14255519       0.71368182       0.50000000 </v>
    <v>       0.28806142       0.71370518       0.50000000 </v>
    <v>       0.43464191       0.71382540       0.50000000 </v>
    <v>       0.58510826       0.71626937       0.50000000 </v>
    <v>       0.70258968       0.71626937       0.50000000 </v>
    <v>       0.85061206       0.71382540       0.50000000 </v>
    <v>       0.99777175       0.85613493       0.50000000 </v>
    <v>       0.14160898       0.85591288       0.50000000 </v>
    <v>       0.28573247       0.85591288       0.50000000 </v>
    <v>       0.42979175       0.85613493       0.50000000 </v>
    <v>       0.57342541       0.85758690       0.50000000 </v>
    <v>       0.71640633       0.86138410       0.50000000 </v>
    <v>       0.85559006       0.85758690       0.50000000 </v>
    <v>       0.04754270       0.09547788       0.50000000 </v>
    <v>       0.18957833       0.09405657       0.50000000 </v>
    <v>       0.33254182       0.09365506       0.50000000 </v>
    <v>       0.47590681       0.09405657       0.50000000 </v>
    <v>       0.61936376       0.09547788       0.50000000 </v>
    <v>       0.76280004       0.09719274       0.50000000 </v>
    <v>       0.90582126       0.09719274       0.50000000 </v>
    <v>       0.04854983       0.23934281       0.50000000 </v>
    <v>       0.19048138       0.23782962       0.50000000 </v>
    <v>       0.33234878       0.23634667       0.50000000 </v>
    <v>       0.47542646       0.23634667       0.50000000 </v>
    <v>       0.61877681       0.23782962       0.50000000 </v>
    <v>       0.76222155       0.23934281       0.50000000 </v>
    <v>       0.90562797       0.23982737       0.50000000 </v>
    <v>       0.04871288       0.38232824       0.50000000 </v>
    <v>       0.19188940       0.38184213       0.50000000 </v>
    <v>       0.33352206       0.38013969       0.50000000 </v>
    <v>       0.47472270       0.37801683       0.50000000 </v>
    <v>       0.61804620       0.38013969       0.50000000 </v>
    <v>       0.76138130       0.38184213       0.50000000 </v>
    <v>       0.90504393       0.38232824       0.50000000 </v>
    <v>       0.04810654       0.52478452       0.50000000 </v>
    <v>       0.19263929       0.52476864       0.50000000 </v>
    <v>       0.33696521       0.52455433       0.50000000 </v>
    <v>       0.47833704       0.52146721       0.50000000 </v>
    <v>       0.61455874       0.52146721       0.50000000 </v>
    <v>       0.75901769       0.52455433       0.50000000 </v>
    <v>       0.90355792       0.52476864       0.50000000 </v>
    <v>       0.04642473       0.66685228       0.50000000 </v>
    <v>       0.19185612       0.66685228       0.50000000 </v>
    <v>       0.33777931       0.66688794       0.50000000 </v>
    <v>       0.48615700       0.66710760       0.50000000 </v>
    <v>       0.75237918       0.66710760       0.50000000 </v>
    <v>       0.90053720       0.66688794       0.50000000 </v>
    <v>       0.04582562       0.80879365       0.50000000 </v>
    <v>       0.19009580       0.80876303       0.50000000 </v>
    <v>       0.33439660       0.80879365       0.50000000 </v>
    <v>       0.47844872       0.80897069       0.50000000 </v>
    <v>       0.62209487       0.81129474       0.50000000 </v>
    <v>       0.76062845       0.81129474       0.50000000 </v>
    <v>       0.90195054       0.80897069       0.50000000 </v>
    <v>       0.04629157       0.95154386       0.50000000 </v>
    <v>       0.18948291       0.95113037       0.50000000 </v>
    <v>       0.33307603       0.95113037       0.50000000 </v>
    <v>       0.47668087       0.95154386       0.50000000 </v>
    <v>       0.62015751       0.95313740       0.50000000 </v>
    <v>       0.76355772       0.95568687       0.50000000 </v>
    <v>       0.90440847       0.95313740       0.50000000 </v>
    <v>       0.56830873       0.56518888       0.50000000 </v>
   </varray>
  </structure>
  <varray name="forces" >
   <v>      -0.04162701      -0.02403253      -0.00000000 </v>
   <v>      -0.02315141      -0.00673234      -0.00000000 </v>
   <v>       0.00179932      -0.01038376      -0.00000000 </v>
   <v>       0.02400694      -0.00857393      -0.00000000 </v>
   <v>       0.04049748      -0.02551246      -0.00000000 </v>
   <v>      -0.03388872      -0.04808068      -0.00000000 </v>
   <v>       0.03244010      -0.04752085      -0.00000000 </v>
   <v>      -0.00709984      -0.02403403      -0.00000000 </v>
   <v>      -0.02835517      -0.02337167      -0.00000000 </v>
   <v>      -0.00790782      -0.03195792      -0.00000000 </v>
   <v>       0.00861682      -0.03259856      -0.00000000 </v>
   <v>       0.02836954      -0.02492476      -0.00000000 </v>
   <v>       0.00661797      -0.02513945      -0.00000000 </v>
   <v>      -0.00016527      -0.03795244      -0.00000000 </v>
   <v>      -0.00915276      -0.02296045      -0.00000000 </v>
   <v>       0.00337830      -0.04191138      -0.00000000 </v>
   <v>      -0.03185036      -0.00178757      -0.00000000 </v>
   <v>      -0.00019020      -0.09348636      -0.00000000 </v>
   <v>       0.03125508      -0.00286695      -0.00000000 </v>
   <v>      -0.00231355      -0.04538408      -0.00000000 </v>
   <v>       0.00914180      -0.02286713      -0.00000000 </v>
   <v>      -0.01371088       0.04949270      -0.00000000 </v>
   <v>      -0.03132098       0.00144418      -0.00000000 </v>
   <v>       0.05433534      -0.13886861      -0.00000000 </v>
   <v>      -0.11312591      -0.20057561      -0.00000000 </v>
   <v>       0.11187005      -0.20058224      -0.00000000 </v>
   <v>      -0.05674691      -0.13952396      -0.00000000 </v>
   <v>       0.05137521       0.00028643      -0.00000000 </v>
   <v>       0.24861447      -0.40410387       0.00000000 </v>
   <v>      -0.04617901      -0.00161707       0.00000000 </v>
   <v>      -0.09080824       0.12267633      -0.00000000 </v>
   <v>       0.04855261       0.39531732      -0.00000000 </v>
   <v>      -0.05112546       0.39364915      -0.00000000 </v>
   <v>       0.07291984       0.10678906      -0.00000000 </v>
   <v>      -0.03860649       0.05552439      -0.00000000 </v>
   <v>       0.04211967       0.03812411      -0.00000000 </v>
   <v>       0.00887239       0.02117860      -0.00000000 </v>
   <v>       0.08522402       0.04177455      -0.00000000 </v>
   <v>       1.36337902       1.25013401       0.00000000 </v>
   <v>      -1.36545397       1.25110874      -0.00000000 </v>
   <v>      -0.09208164       0.04546586      -0.00000000 </v>
   <v>      -0.05197195      -0.00405428       0.00000000 </v>
   <v>      -0.01218980       0.00215668      -0.00000000 </v>
   <v>       0.02044499      -0.00265506      -0.00000000 </v>
   <v>       0.04839782      -0.00732903      -0.00000000 </v>
   <v>       0.15067180       0.03659518       0.00000000 </v>
   <v>      -0.00125617      -0.25151049      -0.00000000 </v>
   <v>      -0.15382464       0.03818411      -0.00000000 </v>
   <v>       0.02805382       0.02964554       0.00000000 </v>
   <v>       0.01151751       0.02066152       0.00000000 </v>
   <v>      -0.00036557       0.02528182      -0.00000000 </v>
   <v>      -0.01178495       0.02223732       0.00000000 </v>
   <v>      -0.02774062       0.03110799      -0.00000000 </v>
   <v>      -0.01315603       0.02520442       0.00000000 </v>
   <v>       0.01342750       0.02461092      -0.00000000 </v>
   <v>       0.01837902       0.03218780      -0.00000000 </v>
   <v>      -0.00675702       0.00140057      -0.00000000 </v>
   <v>       0.01652616       0.03445362      -0.00000000 </v>
   <v>      -0.01596217       0.03506536       0.00000000 </v>
   <v>       0.00731815       0.00338933       0.00000000 </v>
   <v>      -0.01930910       0.03321874       0.00000000 </v>
   <v>      -0.00023148       0.02675630       0.00000000 </v>
   <v>       0.01849775       0.01938844       0.00000000 </v>
   <v>       0.05231405       0.05746431      -0.00000000 </v>
   <v>      -0.01975442      -0.20047816      -0.00000000 </v>
   <v>       0.00064431       0.11020404      -0.00000000 </v>
   <v>       0.02154239      -0.19950401      -0.00000000 </v>
   <v>      -0.04999405       0.06512927      -0.00000000 </v>
   <v>      -0.02202579       0.01757207      -0.00000000 </v>
   <v>      -0.12578521       0.12708841      -0.00000000 </v>
   <v>       0.03869858      -0.00518835       0.00000000 </v>
   <v>       0.19345249       0.11365181      -0.00000000 </v>
   <v>       1.02424785      -1.56290361       0.00000000 </v>
   <v>      -1.02210681      -1.56288237      -0.00000000 </v>
   <v>      -0.19373673       0.11701781      -0.00000000 </v>
   <v>      -0.06699081       0.06289502      -0.00000000 </v>
   <v>      -0.03083019       0.16541082       0.00000000 </v>
   <v>      -0.02020973      -0.01442295       0.00000000 </v>
   <v>      -0.05837199      -0.06281722      -0.00000000 </v>
   <v>      -0.26912628       0.01006549       0.00000000 </v>
   <v>       0.27353066       0.01064665      -0.00000000 </v>
   <v>       0.07196311      -0.06150659      -0.00000000 </v>
   <v>       0.03866084      -0.02271056       0.00000000 </v>
   <v>      -0.00826230      -0.02197789      -0.00000000 </v>
   <v>      -0.03974624      -0.01124142       0.00000000 </v>
   <v>      -0.08579980      -0.01241623       0.00000000 </v>
   <v>      -0.88540185       0.24393801      -0.00000000 </v>
   <v>       0.88813633       0.24340447       0.00000000 </v>
   <v>       0.08912355      -0.01539764       0.00000000 </v>
   <v>       0.03364770       0.01366802      -0.00000000 </v>
   <v>       0.00975876      -0.00849226      -0.00000000 </v>
   <v>      -0.01250910      -0.00596820       0.00000000 </v>
   <v>      -0.03320924       0.01665649      -0.00000000 </v>
   <v>      -0.11102800       0.11849810      -0.00000000 </v>
   <v>       0.00066414       0.01504322       0.00000000 </v>
   <v>       0.11239032       0.11713161       0.00000000 </v>
   <v>      -0.00109596      -0.11918975       0.00000000 </v>
  </varray>
  <varray name="stress" >
   <v>     -10.63039891       0.01440516       0.00000000 </v>
   <v>       0.01440516       3.07135725       0.00000000 </v>
   <v>       0.00000000       0.00000000      -0.42556877 </v>
  </varray>
  <energy>
   <i name="e_fr_energy">   -845.65331932 </i>
   <i name="e_wo_entrp">   -845.65331932 </i>
   <i name="e_0_energy">     -0.00000000 </i>
  </energy>
  <time name="totalsc">  104.16  105.49</time>
  <eigenvalues>
   <array>
    <dimension dim="1">band</dimension>
    <dimension dim="2">kpoint</dimension>
    <dimension dim="3">spin</dimension>
    <field>eigene</field>
    <field>occ</field>
    <set>
     <set comment="spin 1">
      <set comment="kpoint 1">
       <r>  -22.5407    1.0000 </r>
       <r>  -22.0196    1.0000 </r>
       <r>  -21.7723    1.0000 </r>
       <r>  -21.7410    1.0000 </r>
       <r>  -21.7006    1.0000 </r>
       <r>  -21.6561    1.0000 </r>
       <r>  -21.6159    1.0000 </r>
       <r>  -21.2364    1.0000 </r>
       <r>  -21.0706    1.0000 </r>
       <r>  -21.0045    1.0000 </r>
       <r>  -20.9697    1.0000 </r>
       <r>  -20.9267    1.0000 </r>
       <r>  -20.8746    1.0000 </r>
       <r>  -20.7428    1.0000 </r>
       <r>  -20.7025    1.0000 </r>
       <r>  -20.6639    1.0000 </r>
       <r>  -20.5943    1.0000 </r>
       <r>  -20.5702    1.0000 </r>
       <r>  -20.4288    1.0000 </r>
       <r>  -19.9819    1.0000 </r>
       <r>  -19.9234    1.0000 </r>
       <r>  -19.8030    1.0000 </r>
       <r>  -19.7639    1.0000 </r>
       <r>  -19.7372    1.0000 </r>
       <r>  -19.7329    1.0000 </r>
       <r>  -19.7105    1.0000 </r>
       <r>  -19.7014    1.0000 </r>
       <r>  -19.6402    1.0000 </r>
       <r>  -19.6386    1.0000 </r>
       <r>  -19.6292    1.0000 </r>
       <r>  -19.4924    1.0000 </r>
       <r>  -19.4079    1.0000 </r>
       <r>  -19.3629    1.0000 </r>
       <r>  -19.3542    1.0000 </r>
       <r>  -19.2932    1.0000 </r>
       <r>  -19.2406    1.0000 </r>
       <r>  -19.1056    1.0000 </r>
       <r>  -18.9998    1.0000 </r>
       <r>  -18.9316    1.0000 </r>
       <r>  -18.8773    1.0000 </r>
       <r>  -18.8532    1.0000 </r>
       <r>  -18.8393    1.0000 </r>
       <r>  -18.7636    1.0000 </r>
       <r>  -18.7494    1.0000 </r>
       <r>  -18.7230    1.0000 </r>
       <r>  -18.7187    1.0000 </r>
       <r>  -18.6946    1.0000 </r>
       <r>  -18.4455    1.0000 </r>
       <r>  -14.1402    1.0000 </r>
       <r>  -13.1833    1.0000 </r>
       <r>  -13.1548    1.0000 </r>
       <r>  -13.1099    1.0000 </r>
       <r>  -13.1027    1.0000 </r>
       <r>  -13.0777    1.0000 </r>
       <r>  -13.0207    1.0000 </r>
       <r>  -12.9590    1.0000 </r>
       <r>  -12.9493    1.0000 </r>
       <r>  -12.9339    1.0000 </r>
       <r>  -12.8069    1.0000 </r>
       <r>  -12.7689    1.0000 </r>
       <r>  -12.6037    1.0000 </r>
       <r>  -12.5003    1.0000 </r>
       <r>  -12.4840    1.0000 </r>
       <r>  -12.3807    1.0000 </r>
       <r>  -12.3075    1.0000 </r>
       <r>  -12.2976    1.0000 </r>
       <r>  -12.1752    1.0000 </r>
       <r>  -11.9037    1.0000 </r>
       <r>  -11.8860    1.0000 </r>
       <r>  -11.7676    1.0000 </r>
       <r>  -11.7639    1.0000 </r>
       <r>  -11.7473    1.0000 </r>
       <r>  -11.7418    1.0000 </r>
       <r>  -11.6954    1.0000 </r>
       <r>  -11.6561    1.0000 </r>
       <r>  -11.6323    1.0000 </r>
       <r>  -11.5424    1.0000 </r>
       <r>  -11.4216    1.0000 </r>
       <r>  -11.2010    1.0000 </r>
       <r>  -11.1211    1.0000 </r>
       <r>  -11.0869    1.0000 </r>
       <r>  -11.0582    1.0000 </r>
       <r>  -10.9651    1.0000 </r>
       <r>  -10.9101    1.0000 </r>
       <r>  -10.6854    1.0000 </r>
       <r>  -10.4616    1.0000 </r>
       <r>  -10.4292    1.0000 </r>
       <r>  -10.3507    1.0000 </r>
       <r>  -10.2565    1.0000 </r>
       <r>  -10.2092    1.0000 </r>
       <r>   -9.8856    1.0000 </r>
       <r>   -9.7683    1.0000 </r>
       <r>   -9.7647    1.0000 </r>
       <r>   -9.7241    1.0000 </r>
       <r>   -9.6779    1.0000 </r>
       <r>   -9.5867    1.0000 </r>
       <r>   -9.5422    1.0000 </r>
       <r>   -9.4977    1.0000 </r>
       <r>   -9.4660    1.0000 </r>
       <r>   -9.3521    1.0000 </r>
       <r>   -9.3468    1.0000 </r>
       <r>   -9.2879    1.0000 </r>
       <r>   -9.2612    1.0000 </r>
       <r>   -9.2551    1.0000 </r>
       <r>   -9.2482    1.0000 </r>
       <r>   -9.2379    1.0000 </r>
       <r>   -9.2238    1.0000 </r>
       <r>   -9.2224    1.0000 </r>
       <r>   -9.2080    1.0000 </r>
       <r>   -9.2021    1.0000 </r>
       <r>   -9.1971    1.0000 </r>
       <r>   -9.1966    1.0000 </r>
       <r>   -9.1582    1.0000 </r>
       <r>   -9.1360    1.0000 </r>
       <r>   -9.1131    1.0000 </r>
       <r>   -9.1128    1.0000 </r>
       <r>   -9.0992    1.0000 </r>
       <r>   -9.0456    1.0000 </r>
       <r>   -8.9920    1.0000 </r>
       <r>   -8.8410    1.0000 </r>
       <r>   -8.7953    1.0000 </r>
       <r>   -8.6519    1.0000 </r>
       <r>   -8.5081    1.0000 </r>
       <r>   -8.4815    1.0000 </r>
       <r>   -8.4467    1.0000 </r>
       <r>   -8.3279    1.0000 </r>
       <r>   -8.2243    1.0000 </r>
       <r>   -8.2027    1.0000 </r>
       <r>   -8.1972    1.0000 </r>
       <r>   -8.1716    1.0000 </r>
       <r>   -8.1487    1.0000 </r>
       <r>   -8.1222    1.0000 </r>
       <r>   -8.0384    1.0000 </r>
       <r>   -7.9689    1.0000 </r>
       <r>   -7.9519    1.0000 </r>
       <r>   -7.8740    1.0000 </r>
       <r>   -7.8450    1.0000 </r>
       <r>   -7.8399    1.0000 </r>
       <r>   -7.8006    1.0000 </r>
       <r>   -7.7996    1.0000 </r>
       <r>   -7.7943    1.0000 </r>
       <r>   -7.7374    1.0000 </r>
       <r>   -7.7341    1.0000 </r>
       <r>   -7.7130    1.0000 </r>
       <r>   -7.6781    1.0000 </r>
       <r>   -7.6751    1.0000 </r>
       <r>   -7.6652    1.0000 </r>
       <r>   -7.6400    1.0000 </r>
       <r>   -7.6360    1.0000 </r>
       <r>   -7.4429    1.0000 </r>
       <r>   -7.4374    1.0000 </r>
       <r>   -7.4238    1.0000 </r>
       <r>   -7.3882    1.0000 </r>
       <r>   -7.3610    1.0000 </r>
       <r>   -7.2717    1.0000 </r>
       <r>   -6.8290    1.0000 </r>
       <r>   -6.7620    1.0000 </r>
       <r>   -6.6219    1.0000 </r>
       <r>   -6.6055    1.0000 </r>
       <r>   -6.5431    1.0000 </r>
       <r>   -6.5341    1.0000 </r>
       <r>   -6.5030    1.0000 </r>
       <r>   -6.4881    1.0000 </r>
       <r>   -6.4583    1.0000 </r>
       <r>   -6.4581    1.0000 </r>
       <r>   -6.4404    1.0000 </r>
       <r>   -6.4376    1.0000 </r>
       <r>   -6.4126    1.0000 </r>
       <r>   -6.4063    1.0000 </r>
       <r>   -6.3565    1.0000 </r>
       <r>   -6.3458    1.0000 </r>
       <r>   -6.3176    1.0000 </r>
       <r>   -6.1099    1.0000 </r>
       <r>   -5.9682    1.0000 </r>
       <r>   -5.9283    1.0000 </r>
       <r>   -5.8853    1.0000 </r>
       <r>   -5.8811    1.0000 </r>
       <r>   -5.8600    1.0000 </r>
       <r>   -5.7838    1.0000 </r>
       <r>   -5.7800    1.0000 </r>
       <r>   -5.5255    1.0000 </r>
       <r>   -5.2216    1.0000 </r>
       <r>   -5.1981    1.0000 </r>
       <r>   -5.1967    1.0000 </r>
       <r>   -5.1404    1.0000 </r>
       <r>   -5.1333    1.0000 </r>
       <r>   -5.1059    1.0000 </r>
       <r>   -4.9973    1.0000 </r>
       <r>   -4.9449    1.0000 </r>
       <r>   -4.9163    1.0000 </r>
       <r>   -4.9055    1.0000 </r>
       <r>   -4.9015    1.0000 </r>
       <r>   -4.7324    1.0000 </r>
       <r>   -1.3159    1.0000 </r>
       <r>   -1.2025    0.0000 </r>
       <r>    0.0586    0.0000 </r>
       <r>    0.2051    0.0000 </r>
       <r>    0.2405    0.0000 </r>
       <r>    0.2580    0.0000 </r>
       <r>    0.2610    0.0000 </r>
       <r>    0.2995    0.0000 </r>
       <r>    0.3077    0.0000 </r>
       <r>    0.3804    0.0000 </r>
       <r>    0.3924    0.0000 </r>
       <r>    0.4355    0.0000 </r>
       <r>    0.4784    0.0000 </r>
       <r>    0.5255    0.0000 </r>
       <r>    0.6101    0.0000 </r>
       <r>    0.7443    0.0000 </r>
       <r>    0.7510    0.0000 </r>
       <r>    0.7800    0.0000 </r>
       <r>    0.8068    0.0000 </r>
       <r>    0.8128    0.0000 </r>
       <r>    0.8287    0.0000 </r>
       <r>    0.8373    0.0000 </r>
       <r>    0.8575    0.0000 </r>
       <r>    0.8713    0.0000 </r>
       <r>    0.9807    0.0000 </r>
       <r>    1.0202    0.0000 </r>
       <r>    1.0599    0.0000 </r>
       <r>    1.1188    0.0000 </r>
       <r>    1.4953    0.0000 </r>
       <r>    1.6729    0.0000 </r>
       <r>    1.6977    0.0000 </r>
       <r>    1.7066    0.0000 </r>
       <r>    1.7238    0.0000 </r>
       <r>    1.7391    0.0000 </r>
       <r>    1.7441    0.0000 </r>
       <r>    1.8053    0.0000 </r>
       <r>    1.8073    0.0000 </r>
       <r>    1.8451    0.0000 </r>
       <r>    1.8457    0.0000 </r>
       <r>    1.8775    0.0000 </r>
       <r>    1.8814    0.0000 </r>
       <r>    1.9062    0.0000 </r>
       <r>    1.9099    0.0000 </r>
       <r>    1.9306    0.0000 </r>
       <r>    1.9824    0.0000 </r>
       <r>    2.0300    0.0000 </r>
       <r>    2.1030    0.0000 </r>
       <r>    2.1076    0.0000 </r>
       <r>    2.1281    0.0000 </r>
       <r>    2.1343    0.0000 </r>
       <r>    2.1407    0.0000 </r>
      </set>
     </set>
    </set>
   </array>
  </eigenvalues>
  <separator name="orbital magnetization" >
   <v name="MAGDIPOLOUT">      0.00000000      0.00000000      0.00000000</v>
  </separator>
  <dos>
   <i name="efermi">     -1.25199812 </i>
   <total>
    <array>
     <dimension dim="1">gridpoints</dimension>
     <dimension dim="2">spin</dimension>
     <field>energy</field>
     <field>total</field>
     <field>integrated</field>
     <set>
      <set comment="spin 1">
       <r>   -23.7748     0.0000     0.0000 </r>
       <r>   -23.6843     0.0000     0.0000 </r>
       <r>   -23.5938     0.0000     0.0000 </r>
       <r>   -23.5033     0.0000     0.0000 </r>
       <r>   -23.4128     0.0000     0.0000 </r>
       <r>   -23.3223     0.0000     0.0000 </r>
       <r>   -23.2318     0.0000     0.0000 </r>
       <r>   -23.1413     0.0000     0.0000 </r>
       <r>   -23.0508     0.0000     0.0000 </r>
       <r>   -22.9603     0.0000     0.0000 </r>
       <r>   -22.8698     0.0000     0.0000 </r>
       <r>   -22.7793     0.0000     0.0000 </r>
       <r>   -22.6888     0.0000     0.0000 </r>
       <r>   -22.5983     0.0000     0.0000 </r>
       <r>   -22.5078    22.0998     2.0000 </r>
       <r>   -22.4173     0.0000     2.0000 </r>
       <r>   -22.3268     0.0000     2.0000 </r>
       <r>   -22.2363     0.0000     2.0000 </r>
       <r>   -22.1458     0.0000     2.0000 </r>
       <r>   -22.0553     0.0000     2.0000 </r>
       <r>   -21.9648    22.0998     4.0000 </r>
       <r>   -21.8743     0.0000     4.0000 </r>
       <r>   -21.7838     1.1391     4.1031 </r>
       <r>   -21.6933    61.7767     9.6938 </r>
       <r>   -21.6028    43.4927    13.9360 </r>
       <r>   -21.5123     0.0000    14.0000 </r>
       <r>   -21.4218     0.0000    14.0000 </r>
       <r>   -21.3313     0.0000    14.0000 </r>
       <r>   -21.2408     5.8523    14.5296 </r>
       <r>   -21.1503     0.0000    16.0000 </r>
       <r>   -21.0598    20.6833    17.8718 </r>
       <r>   -20.9694    33.6195    21.0425 </r>
       <r>   -20.8789    28.1243    24.5452 </r>
       <r>   -20.7884     0.0000    26.0000 </r>
       <r>   -20.6979    38.5748    29.4910 </r>
       <r>   -20.6074    22.8111    32.0644 </r>
       <r>   -20.5169    43.4883    36.0000 </r>
       <r>   -20.4264    14.0691    37.2732 </r>
       <r>   -20.3359     0.0000    38.0000 </r>
       <r>   -20.2454     0.0000    38.0000 </r>
       <r>   -20.1549     0.0000    38.0000 </r>
       <r>   -20.0644     0.0000    38.0000 </r>
       <r>   -19.9739    19.2917    39.7459 </r>
       <r>   -19.8834    22.0998    42.0000 </r>
       <r>   -19.7929    20.3998    43.8462 </r>
       <r>   -19.7024    95.5007    52.6427 </r>
       <r>   -19.6119    66.1412    59.9857 </r>
       <r>   -19.5214     0.0004    60.0000 </r>
       <r>   -19.4309    22.1119    62.0011 </r>
       <r>   -19.3404    65.7062    67.9474 </r>
       <r>   -19.2499    24.1698    70.1873 </r>
       <r>   -19.1594     0.0000    72.0000 </r>
       <r>   -19.0689    22.0998    74.0000 </r>
       <r>   -18.9784    22.0722    75.9975 </r>
       <r>   -18.8879    23.5756    78.1336 </r>
       <r>   -18.7974    64.8237    84.0000 </r>
       <r>   -18.7069    87.9985    91.9637 </r>
       <r>   -18.6164    21.1930    94.0000 </r>
       <r>   -18.5259     0.0000    94.0000 </r>
       <r>   -18.4354    20.3976    95.8460 </r>
       <r>   -18.3449     0.0000    96.0000 </r>
       <r>   -18.2544     0.0000    96.0000 </r>
       <r>   -18.1639     0.0000    96.0000 </r>
       <r>   -18.0734     0.0000    96.0000 </r>
       <r>   -17.9829     0.0000    96.0000 </r>
       <r>   -17.8924     0.0000    96.0000 </r>
       <r>   -17.8019     0.0000    96.0000 </r>
       <r>   -17.7114     0.0000    96.0000 </r>
       <r>   -17.6209     0.0000    96.0000 </r>
       <r>   -17.5304     0.0000    96.0000 </r>
       <r>   -17.4399     0.0000    96.0000 </r>
       <r>   -17.3494     0.0000    96.0000 </r>
       <r>   -17.2589     0.0000    96.0000 </r>
       <r>   -17.1684     0.0000    96.0000 </r>
       <r>   -17.0779     0.0000    96.0000 </r>
       <r>   -16.9874     0.0000    96.0000 </r>
       <r>   -16.8969     0.0000    96.0000 </r>
       <r>   -16.8064     0.0000    96.0000 </r>
       <r>   -16.7159     0.0000    96.0000 </r>
       <r>   -16.6254     0.0000    96.0000 </r>
       <r>   -16.5349     0.0000    96.0000 </r>
       <r>   -16.4444     0.0000    96.0000 </r>
       <r>   -16.3539     0.0000    96.0000 </r>
       <r>   -16.2634     0.0000    96.0000 </r>
       <r>   -16.1729     0.0000    96.0000 </r>
       <r>   -16.0824     0.0000    96.0000 </r>
       <r>   -15.9919     0.0000    96.0000 </r>
       <r>   -15.9014     0.0000    96.0000 </r>
       <r>   -15.8109     0.0000    96.0000 </r>
       <r>   -15.7204     0.0000    96.0000 </r>
       <r>   -15.6299     0.0000    96.0000 </r>
       <r>   -15.5394     0.0000    96.0000 </r>
       <r>   -15.4489     0.0000    96.0000 </r>
       <r>   -15.3584     0.0000    96.0000 </r>
       <r>   -15.2679     0.0000    96.0000 </r>
       <r>   -15.1774     0.0000    96.0000 </r>
       <r>   -15.0870     0.0000    96.0000 </r>
       <r>   -14.9965     0.0000    96.0000 </r>
       <r>   -14.9060     0.0000    96.0000 </r>
       <r>   -14.8155     0.0000    96.0000 </r>
       <r>   -14.7250     0.0000    96.0000 </r>
       <r>   -14.6345     0.0000    96.0000 </r>
       <r>   -14.5440     0.0000    96.0000 </r>
       <r>   -14.4535     0.0000    96.0000 </r>
       <r>   -14.3630     0.0000    96.0000 </r>
       <r>   -14.2725     0.0000    96.0000 </r>
       <r>   -14.1820     0.0000    96.0000 </r>
       <r>   -14.0915    22.0998    98.0000 </r>
       <r>   -14.0010     0.0000    98.0000 </r>
       <r>   -13.9105     0.0000    98.0000 </r>
       <r>   -13.8200     0.0000    98.0000 </r>
       <r>   -13.7295     0.0000    98.0000 </r>
       <r>   -13.6390     0.0000    98.0000 </r>
       <r>   -13.5485     0.0000    98.0000 </r>
       <r>   -13.4580     0.0000    98.0000 </r>
       <r>   -13.3675     0.0000    98.0000 </r>
       <r>   -13.2770     0.0000    98.0000 </r>
       <r>   -13.1865     7.1639    98.6483 </r>
       <r>   -13.0960    62.0461   105.6151 </r>
       <r>   -13.0055    43.7472   109.9687 </r>
       <r>   -12.9150    66.2151   115.9924 </r>
       <r>   -12.8245     0.1410   116.0128 </r>
       <r>   -12.7340    44.0587   120.0000 </r>
       <r>   -12.6435     0.0000   120.0000 </r>
       <r>   -12.5530    22.0998   122.0000 </r>
       <r>   -12.4625    44.1735   125.9976 </r>
       <r>   -12.3720    19.6856   127.7815 </r>
       <r>   -12.2815    43.9417   131.9767 </r>
       <r>   -12.1910     0.2794   132.0253 </r>
       <r>   -12.1005    21.8204   134.0000 </r>
       <r>   -12.0100     0.0000   134.0000 </r>
       <r>   -11.9195     0.2808   134.0254 </r>
       <r>   -11.8290    43.9188   138.0000 </r>
       <r>   -11.7385    79.0021   145.1496 </r>
       <r>   -11.6480    41.6748   149.7715 </r>
       <r>   -11.5575    22.1679   152.0325 </r>
       <r>   -11.4670    21.7409   154.0000 </r>
       <r>   -11.3765    22.0998   156.0000 </r>
       <r>   -11.2860     0.0000   156.0000 </r>
       <r>   -11.1955    17.2720   157.5631 </r>
       <r>   -11.1050    21.9643   159.9877 </r>
       <r>   -11.0145    44.0841   164.0000 </r>
       <r>   -10.9240    22.6399   166.0489 </r>
       <r>   -10.8335    21.5598   168.0000 </r>
       <r>   -10.7430     0.0000   168.0000 </r>
       <r>   -10.6525    22.0998   170.0000 </r>
       <r>   -10.5620     0.0000   170.0000 </r>
       <r>   -10.4715     1.7703   170.1602 </r>
       <r>   -10.3810    22.1000   174.0000 </r>
       <r>   -10.2905    22.0996   176.0000 </r>
       <r>   -10.2000    42.0490   179.8054 </r>
       <r>   -10.1095     0.0000   180.0000 </r>
       <r>   -10.0190     0.0000   180.0000 </r>
       <r>    -9.9285     0.0000   180.0000 </r>
       <r>    -9.8380    22.0998   182.0000 </r>
       <r>    -9.7475    44.0046   185.9823 </r>
       <r>    -9.6570    44.1543   189.9968 </r>
       <r>    -9.5665    22.0578   191.9962 </r>
       <r>    -9.4760    45.8935   196.1539 </r>
       <r>    -9.3855     0.0000   198.0000 </r>
       <r>    -9.2950    47.6412   202.3115 </r>
       <r>    -9.2046   161.7472   218.6379 </r>
       <r>    -9.1141    63.9062   229.7834 </r>
       <r>    -9.0236    43.7850   235.9982 </r>
       <r>    -8.9331    22.0997   238.0000 </r>
       <r>    -8.8426     9.0761   238.8214 </r>
       <r>    -8.7521    22.0998   242.0000 </r>
       <r>    -8.6616     1.9005   242.1720 </r>
       <r>    -8.5711     0.0000   244.0000 </r>
       <r>    -8.4806    34.3719   247.1106 </r>
       <r>    -8.3901    22.0998   250.0000 </r>
       <r>    -8.2996    22.0992   251.9999 </r>
       <r>    -8.2091    26.8369   254.4287 </r>
       <r>    -8.1186    80.6855   263.3961 </r>
       <r>    -8.0281    20.4996   265.8552 </r>
       <r>    -7.9376    43.7239   269.9569 </r>
       <r>    -7.8471    34.0676   273.0831 </r>
       <r>    -7.7566    66.3881   282.0080 </r>
       <r>    -7.6661   117.1112   292.6064 </r>
       <r>    -7.5756    44.1969   298.0000 </r>
       <r>    -7.4851     0.0000   298.0000 </r>
       <r>    -7.3946    70.3262   304.3644 </r>
       <r>    -7.3041    22.0999   308.0000 </r>
       <r>    -7.2136    22.0998   310.0000 </r>
       <r>    -7.1231     0.0000   310.0000 </r>
       <r>    -7.0326     0.0000   310.0000 </r>
       <r>    -6.9421     0.0000   310.0000 </r>
       <r>    -6.8516     0.0153   310.0014 </r>
       <r>    -6.7611    34.2293   313.0991 </r>
       <r>    -6.6706     0.0000   314.0000 </r>
       <r>    -6.5801    44.1960   317.9997 </r>
       <r>    -6.4896    74.8453   324.7734 </r>
       <r>    -6.3991   128.5629   337.6348 </r>
       <r>    -6.3086    64.0795   343.7991 </r>
       <r>    -6.2181     0.0000   344.0000 </r>
       <r>    -6.1276     0.1363   344.0123 </r>
       <r>    -6.0371    21.9635   346.0000 </r>
       <r>    -5.9466    22.1825   348.0075 </r>
       <r>    -5.8561    81.8102   355.4134 </r>
       <r>    -5.7656    43.6247   359.9480 </r>
       <r>    -5.6751     0.0000   360.0000 </r>
       <r>    -5.5846     0.0000   360.0000 </r>
       <r>    -5.4941    22.0997   362.0000 </r>
       <r>    -5.4036     0.0000   362.0000 </r>
       <r>    -5.3131     0.0000   362.0000 </r>
       <r>    -5.2226     9.7680   362.8840 </r>
       <r>    -5.1321    76.1661   370.8937 </r>
       <r>    -5.0416    22.0975   374.0000 </r>
       <r>    -4.9511    26.2761   376.3780 </r>
       <r>    -4.8606    66.2995   384.0000 </r>
       <r>    -4.7701     0.0000   384.0000 </r>
       <r>    -4.6796    22.0998   386.0000 </r>
       <r>    -4.5891     0.0000   386.0000 </r>
       <r>    -4.4986     0.0000   386.0000 </r>
       <r>    -4.4081     0.0000   386.0000 </r>
       <r>    -4.3176     0.0000   386.0000 </r>
       <r>    -4.2271     0.0000   386.0000 </r>
       <r>    -4.1366     0.0000   386.0000 </r>
       <r>    -4.0461     0.0000   386.0000 </r>
       <r>    -3.9556     0.0000   386.0000 </r>
       <r>    -3.8651     0.0000   386.0000 </r>
       <r>    -3.7746     0.0000   386.0000 </r>
       <r>    -3.6841     0.0000   386.0000 </r>
       <r>    -3.5936     0.0000   386.0000 </r>
       <r>    -3.5031     0.0000   386.0000 </r>
       <r>    -3.4126     0.0000   386.0000 </r>
       <r>    -3.3222     0.0000   386.0000 </r>
       <r>    -3.2317     0.0000   386.0000 </r>
       <r>    -3.1412     0.0000   386.0000 </r>
       <r>    -3.0507     0.0000   386.0000 </r>
       <r>    -2.9602     0.0000   386.0000 </r>
       <r>    -2.8697     0.0000   386.0000 </r>
       <r>    -2.7792     0.0000   386.0000 </r>
       <r>    -2.6887     0.0000   386.0000 </r>
       <r>    -2.5982     0.0000   386.0000 </r>
       <r>    -2.5077     0.0000   386.0000 </r>
       <r>    -2.4172     0.0000   386.0000 </r>
       <r>    -2.3267     0.0000   386.0000 </r>
       <r>    -2.2362     0.0000   386.0000 </r>
       <r>    -2.1457     0.0000   386.0000 </r>
       <r>    -2.0552     0.0000   386.0000 </r>
       <r>    -1.9647     0.0000   386.0000 </r>
       <r>    -1.8742     0.0000   386.0000 </r>
       <r>    -1.7837     0.0000   386.0000 </r>
       <r>    -1.6932     0.0000   386.0000 </r>
       <r>    -1.6027     0.0000   386.0000 </r>
       <r>    -1.5122     0.0000   386.0000 </r>
       <r>    -1.4217     0.0000   386.0000 </r>
       <r>    -1.3312     0.3435   386.0311 </r>
       <r>    -1.2407    21.7563   388.0000 </r>
       <r>    -1.1502    22.0998   390.0000 </r>
       <r>    -1.0597     0.0000   390.0000 </r>
       <r>    -0.9692     0.0000   390.0000 </r>
       <r>    -0.8787     0.0000   390.0000 </r>
       <r>    -0.7882     0.0000   390.0000 </r>
       <r>    -0.6977     0.0000   390.0000 </r>
       <r>    -0.6072     0.0000   390.0000 </r>
       <r>    -0.5167     0.0000   390.0000 </r>
       <r>    -0.4262     0.0000   390.0000 </r>
       <r>    -0.3357     0.0000   390.0000 </r>
       <r>    -0.2452     0.0000   390.0000 </r>
       <r>    -0.1547     0.0000   390.0000 </r>
       <r>    -0.0642     0.0000   390.0000 </r>
       <r>     0.0263     0.0001   390.0000 </r>
       <r>     0.1168    22.0998   392.0000 </r>
       <r>     0.2073    13.7590   393.2452 </r>
       <r>     0.2978    77.0648   400.9743 </r>
       <r>     0.3883    25.3389   406.2931 </r>
       <r>     0.4788    33.6438   411.0447 </r>
       <r>     0.5693    22.0998   414.0000 </r>
       <r>     0.6598    22.0998   416.0000 </r>
       <r>     0.7503    27.8616   418.5214 </r>
       <r>     0.8408   102.8197   429.3051 </r>
       <r>     0.9313    44.0021   434.0000 </r>
       <r>     1.0218    35.1137   437.1777 </r>
       <r>     1.1123    26.0583   440.3582 </r>
       <r>     1.2028     0.0000   442.0000 </r>
       <r>     1.2933     0.0000   442.0000 </r>
       <r>     1.3838     0.0000   442.0000 </r>
       <r>     1.4743     0.0328   442.0030 </r>
       <r>     1.5648    22.0671   444.0000 </r>
       <r>     1.6553     0.1387   444.0126 </r>
       <r>     1.7458   119.6469   454.8404 </r>
       <r>     1.8363    48.5018   460.3893 </r>
       <r>     1.9268    94.6251   472.5634 </r>
       <r>     2.0173    22.8916   476.0717 </r>
       <r>     2.1078    49.1059   480.5157 </r>
       <r>     2.1983    66.2523   488.0000 </r>
       <r>     2.2888     0.0000   488.0000 </r>
       <r>     2.3793     0.0000   488.0000 </r>
       <r>     2.4698     0.0000   488.0000 </r>
       <r>     2.5602     0.0000   488.0000 </r>
       <r>     2.6507     0.0000   488.0000 </r>
       <r>     2.7412     0.0000   488.0000 </r>
       <r>     2.8317     0.0000   488.0000 </r>
       <r>     2.9222     0.0000   488.0000 </r>
       <r>     3.0127     0.0000   488.0000 </r>
       <r>     3.1032     0.0000   488.0000 </r>
       <r>     3.1937     0.0000   488.0000 </r>
       <r>     3.2842     0.0000   488.0000 </r>
       <r>     3.3747     0.0000   488.0000 </r>
      </set>
     </set>
    </array>
   </total>
  </dos>
 </calculation>
 <structure name="finalpos" >
  <crystal>
   <varray name="basis" >
    <v>      17.59966831       0.00000000       0.00000000 </v>
    <v>      -8.79983416      15.24175986       0.00000000 </v>
    <v>       0.00000000       0.00000000      19.92151445 </v>
   </varray>
   <i name="volume">   5343.94461817 </i>
   <varray name="rec_basis" >
    <v>       0.05681925       0.03280461       0.00000000 </v>
    <v>       0.00000000       0.06560922       0.00000000 </v>
    <v>       0.00000000       0.00000000       0.05019699 </v>
   </varray>
  </crystal>
  <varray name="positions" >
   <v>       0.99943010       0.00005992       0.50000000 </v>
   <v>       0.14164706       0.99871895       0.50000000 </v>
   <v>       0.28492260       0.99841663       0.50000000 </v>
   <v>       0.42850047       0.99871895       0.50000000 </v>
   <v>       0.57205839       0.00005992       0.50000000 </v>
   <v>       0.71530655       0.00214292       0.50000000 </v>
   <v>       0.85826494       0.00214292       0.50000000 </v>
   <v>       0.00080792       0.14408264       0.50000000 </v>
   <v>       0.14259355       0.14244783       0.50000000 </v>
   <v>       0.28470221       0.14112972       0.50000000 </v>
   <v>       0.42785608       0.14112972       0.50000000 </v>
   <v>       0.57128286       0.14244783       0.50000000 </v>
   <v>       0.71470329       0.14408264       0.50000000 </v>
   <v>       0.85805263       0.14467669       0.50000000 </v>
   <v>       0.00095476       0.28713011       0.50000000 </v>
   <v>       0.14372552       0.28645370       0.50000000 </v>
   <v>       0.28540977       0.28469374       0.50000000 </v>
   <v>       0.42724431       0.28306005       0.50000000 </v>
   <v>       0.57071254       0.28469374       0.50000000 </v>
   <v>       0.71415674       0.28645370       0.50000000 </v>
   <v>       0.85760392       0.28713011       0.50000000 </v>
   <v>       0.00054479       0.42966101       0.50000000 </v>
   <v>       0.14422690       0.42957551       0.50000000 </v>
   <v>       0.28730213       0.42918005       0.50000000 </v>
   <v>       0.42797654       0.42569726       0.50000000 </v>
   <v>       0.56914930       0.42569726       0.50000000 </v>
   <v>       0.71330650       0.42918005       0.50000000 </v>
   <v>       0.85677719       0.42957551       0.50000000 </v>
   <v>       0.99928255       0.57238282       0.50000000 </v>
   <v>       0.14396064       0.57181462       0.50000000 </v>
   <v>       0.28862787       0.57181625       0.50000000 </v>
   <v>       0.43313209       0.57215564       0.50000000 </v>
   <v>       0.71045212       0.57215564       0.50000000 </v>
   <v>       0.85461695       0.57181625       0.50000000 </v>
   <v>       0.99707234       0.71370518       0.50000000 </v>
   <v>       0.14255519       0.71368182       0.50000000 </v>
   <v>       0.28806142       0.71370518       0.50000000 </v>
   <v>       0.43464191       0.71382540       0.50000000 </v>
   <v>       0.58510826       0.71626937       0.50000000 </v>
   <v>       0.70258968       0.71626937       0.50000000 </v>
   <v>       0.85061206       0.71382540       0.50000000 </v>
   <v>       0.99777175       0.85613493       0.50000000 </v>
   <v>       0.14160898       0.85591288       0.50000000 </v>
   <v>       0.28573247       0.85591288       0.50000000 </v>
   <v>       0.42979175       0.85613493       0.50000000 </v>
   <v>       0.57342541       0.85758690       0.50000000 </v>
   <v>       0.71640633       0.86138410       0.50000000 </v>
   <v>       0.85559006       0.85758690       0.50000000 </v>
   <v>       0.04754270       0.09547788       0.50000000 </v>
   <v>       0.18957833       0.09405657       0.50000000 </v>
   <v>       0.33254182       0.09365506       0.50000000 </v>
   <v>       0.47590681       0.09405657       0.50000000 </v>
   <v>       0.61936376       0.09547788       0.50000000 </v>
   <v>       0.76280004       0.09719274       0.50000000 </v>
   <v>       0.90582126       0.09719274       0.50000000 </v>
   <v>       0.04854983       0.23934281       0.50000000 </v>
   <v>       0.19048138       0.23782962       0.50000000 </v>
   <v>       0.33234878       0.23634667       0.50000000 </v>
   <v>       0.47542646       0.23634667       0.50000000 </v>
   <v>       0.61877681       0.23782962       0.50000000 </v>
   <v>       0.76222155       0.23934281       0.50000000 </v>
   <v>       0.90562797       0.23982737       0.50000000 </v>
   <v>       0.04871288       0.38232824       0.50000000 </v>
   <v>       0.19188940       0.38184213       0.50000000 </v>
   <v>       0.33352206       0.38013969       0.50000000 </v>
   <v>       0.47472270       0.37801683       0.50000000 </v>
   <v>       0.61804620       0.38013969       0.50000000 </v>
   <v>       0.76138130       0.38184213       0.50000000 </v>
   <v>       0.90504393       0.38232824       0.50000000 </v>
   <v>       0.04810654       0.52478452       0.50000000 </v>
   <v>       0.19263929       0.52476864       0.50000000 </v>
   <v>       0.33696521       0.52455433       0.50000000 </v>
   <v>       0.47833704       0.52146721       0.50000000 </v>
   <v>       0.61455874       0.52146721       0.50000000 </v>
   <v>       0.75901769       0.52455433       0.50000000 </v>
   <v>       0.90355792       0.52476864       0.50000000 </v>
   <v>       0.04642473       0.66685228       0.50000000 </v>
   <v>       0.19185612       0.66685228       0.50000000 </v>
   <v>       0.33777931       0.66688794       0.50000000 </v>
   <v>       0.48615700       0.66710760       0.50000000 </v>
   <v>       0.75237918       0.66710760       0.50000000 </v>
   <v>       0.90053720       0.66688794       0.50000000 </v>
   <v>       0.04582562       0.80879365       0.50000000 </v>
   <v>       0.19009580       0.80876303       0.50000000 </v>
   <v>       0.33439660       0.80879365       0.50000000 </v>
   <v>       0.47844872       0.80897069       0.50000000 </v>
   <v>       0.62209487       0.81129474       0.50000000 </v>
   <v>       0.76062845       0.81129474       0.50000000 </v>
   <v>       0.90195054       0.80897069       0.50000000 </v>
   <v>       0.04629157       0.95154386       0.50000000 </v>
   <v>       0.18948291       0.95113037       0.50000000 </v>
   <v>       0.33307603       0.95113037       0.50000000 </v>
   <v>       0.47668087       0.95154386       0.50000000 </v>
   <v>       0.62015751       0.95313740       0.50000000 </v>
   <v>       0.76355772       0.95568687       0.50000000 </v>
   <v>       0.90440847       0.95313740       0.50000000 </v>
   <v>       0.56830873       0.56518888       0.50000000 </v>
  </varray>
 </structure>
</modeling>
