<?xml version="1.0" encoding="ISO-8859-1"?>
<modeling>
 <generator>
  <i name="program" type="string">vasp </i>
  <i name="version" type="string">5.4.4.18Apr17-6-g9f103f2a35  </i>
  <i name="subversion" type="string">(build Oct 18 2020 22:16:12) gamma-only         parallel </i>
  <i name="platform" type="string">UA-vaughan-2020a </i>
  <i name="date" type="string">2023 03 21 </i>
  <i name="time" type="string">22:56:53 </i>
 </generator>
 <incar>
  <i type="string" name="PREC">accurate</i>
  <i type="int" name="IALGO">    38</i>
  <i type="logical" name="ADDGRID"> T  </i>
  <i type="int" name="NELMIN">     5</i>
  <i type="int" name="IBRION">    -1</i>
  <i name="EDIFF">      0.00000001</i>
  <i name="EDIFFG">     -0.00000001</i>
  <i type="int" name="NSW">     0</i>
  <i type="int" name="ISIF">     2</i>
  <i name="ENCUT">    500.00000000</i>
  <i type="logical" name="LREAL"> F  </i>
  <i type="int" name="ISMEAR">     0</i>
  <i name="SIGMA">      0.01000000</i>
  <i type="logical" name="LWAVE"> F  </i>
  <i type="logical" name="LCHARG"> F  </i>
  <v type="int" name="KPOINT_BSE">    -1     0     0     0</v>
 </incar>
 <structure name="primitive_cell" >
  <crystal>
   <varray name="basis" >
    <v>      17.59966831       0.00000000       0.00000000 </v>
    <v>      -8.79983416      15.24175986       0.00000000 </v>
    <v>       0.00000000       0.00000000      19.92151445 </v>
   </varray>
   <i name="volume">   5343.94461817 </i>
   <varray name="rec_basis" >
    <v>       0.05681925       0.03280461       0.00000000 </v>
    <v>       0.00000000       0.06560922       0.00000000 </v>
    <v>       0.00000000       0.00000000       0.05019699 </v>
   </varray>
  </crystal>
  <varray name="positions" >
   <v>      -0.00056990       0.00005992      -0.50000000 </v>
   <v>      -0.09559153      -0.04686260      -0.50000000 </v>
   <v>       0.04629157      -0.04845614      -0.50000000 </v>
   <v>       0.04754270       0.09547788      -0.50000000 </v>
   <v>      -0.14173506       0.00214292      -0.50000000 </v>
   <v>       0.14259355       0.14244783      -0.50000000 </v>
   <v>       0.14164706      -0.00128105      -0.50000000 </v>
   <v>      -0.00222825      -0.14386507      -0.50000000 </v>
   <v>      -0.14440994      -0.14241310      -0.50000000 </v>
   <v>       0.00080792       0.14408264      -0.50000000 </v>
   <v>       0.18957833       0.09405657      -0.50000000 </v>
   <v>      -0.09417874       0.09719274      -0.50000000 </v>
   <v>      -0.09804946      -0.19102931      -0.50000000 </v>
   <v>      -0.23644228      -0.04431313      -0.50000000 </v>
   <v>      -0.23937155      -0.18870526      -0.50000000 </v>
   <v>       0.19048138       0.23782962      -0.50000000 </v>
   <v>       0.04582562      -0.19120635      -0.50000000 </v>
   <v>       0.18948291      -0.04886963      -0.50000000 </v>
   <v>       0.04854983       0.23934281      -0.50000000 </v>
   <v>      -0.28359367      -0.13861590      -0.50000000 </v>
   <v>       0.28470221       0.14112972      -0.50000000 </v>
   <v>      -0.14194737       0.14467669      -0.50000000 </v>
   <v>      -0.14938794      -0.28617460      -0.50000000 </v>
   <v>       0.14160898      -0.14408712      -0.50000000 </v>
   <v>       0.14372552       0.28645370      -0.50000000 </v>
   <v>      -0.28469345       0.00214292      -0.50000000 </v>
   <v>      -0.00292766      -0.28629482      -0.50000000 </v>
   <v>       0.28540977       0.28469374      -0.50000000 </v>
   <v>       0.00095476       0.28713011      -0.50000000 </v>
   <v>       0.28492260      -0.00158337      -0.50000000 </v>
   <v>      -0.29741032      -0.28373063      -0.50000000 </v>
   <v>      -0.09946280      -0.33311206      -0.50000000 </v>
   <v>       0.33234878       0.23634667      -0.50000000 </v>
   <v>       0.33254182       0.09365506      -0.50000000 </v>
   <v>      -0.23719996       0.09776093      -0.50000000 </v>
   <v>      -0.09437203       0.23982737      -0.50000000 </v>
   <v>      -0.24762082      -0.33289240      -0.50000000 </v>
   <v>      -0.37790513      -0.18870526      -0.50000000 </v>
   <v>       0.19188940       0.38184213      -0.50000000 </v>
   <v>       0.19009580      -0.19123697      -0.50000000 </v>
   <v>      -0.37984249      -0.04686260      -0.50000000 </v>
   <v>       0.04642473      -0.33314772      -0.50000000 </v>
   <v>       0.33352206       0.38013969      -0.50000000 </v>
   <v>       0.04871288       0.38232824      -0.50000000 </v>
   <v>       0.33307603      -0.04886963      -0.50000000 </v>
   <v>      -0.41489174      -0.28373063      -0.50000000 </v>
   <v>      -0.42657459      -0.14241310      -0.50000000 </v>
   <v>       0.42724431       0.28306005      -0.50000000 </v>
   <v>      -0.14538305      -0.42818375      -0.50000000 </v>
   <v>      -0.28529671       0.14408264      -0.50000000 </v>
   <v>      -0.28954788      -0.42784436      -0.50000000 </v>
   <v>       0.42785608       0.14112972      -0.50000000 </v>
   <v>      -0.14239608       0.28713011      -0.50000000 </v>
   <v>       0.14422690       0.42957551      -0.50000000 </v>
   <v>       0.28730213       0.42918005      -0.50000000 </v>
   <v>       0.14255519      -0.28631818      -0.50000000 </v>
   <v>       0.28573247      -0.14408712      -0.50000000 </v>
   <v>      -0.24098231      -0.47544567      -0.50000000 </v>
   <v>       0.47542646       0.23634667      -0.50000000 </v>
   <v>      -0.23777845       0.23934281      -0.50000000 </v>
   <v>       0.42797654       0.42569726      -0.50000000 </v>
   <v>      -0.42794161       0.00005992      -0.50000000 </v>
   <v>      -0.00071745      -0.42818538      -0.50000000 </v>
   <v>       0.00054479       0.42966101      -0.50000000 </v>
   <v>       0.42850047      -0.00128105      -0.50000000 </v>
   <v>      -0.43169127      -0.43481112      -0.50000000 </v>
   <v>       0.47472270       0.37801683      -0.50000000 </v>
   <v>      -0.09644208      -0.47523136      -0.50000000 </v>
   <v>      -0.38063624       0.09547788      -0.50000000 </v>
   <v>       0.47590681       0.09405657      -0.50000000 </v>
   <v>      -0.09495607       0.38232824      -0.50000000 </v>
   <v>      -0.38544126      -0.47853279      -0.50000000 </v>
   <v>       0.48615700      -0.33289240      -0.50000000 </v>
   <v>       0.47844872      -0.19102931      -0.50000000 </v>
   <v>       0.19263929      -0.47523136      -0.50000000 </v>
   <v>       0.33696521      -0.47544567      -0.50000000 </v>
   <v>       0.19185612      -0.33314772      -0.50000000 </v>
   <v>       0.33439660      -0.19120635      -0.50000000 </v>
   <v>       0.43464191      -0.28617460      -0.50000000 </v>
   <v>      -0.28669350       0.42918005      -0.50000000 </v>
   <v>      -0.42928746       0.28469374      -0.50000000 </v>
   <v>      -0.28584326       0.28645370      -0.50000000 </v>
   <v>       0.28862787      -0.42818375      -0.50000000 </v>
   <v>       0.28806142      -0.28629482      -0.50000000 </v>
   <v>       0.47668087      -0.04845614      -0.50000000 </v>
   <v>       0.47833704      -0.47853279      -0.50000000 </v>
   <v>       0.04810654      -0.47521548      -0.50000000 </v>
   <v>       0.43313209      -0.42784436      -0.50000000 </v>
   <v>       0.42979175      -0.14386507      -0.50000000 </v>
   <v>      -0.43085070       0.42569726      -0.50000000 </v>
   <v>      -0.14322281       0.42957551      -0.50000000 </v>
   <v>      -0.42871714       0.14244783      -0.50000000 </v>
   <v>       0.14396064      -0.42818538      -0.50000000 </v>
   <v>      -0.23861870       0.38184213      -0.50000000 </v>
   <v>      -0.38122319       0.23782962      -0.50000000 </v>
   <v>      -0.38195380       0.38013969      -0.50000000 </v>
   <v>       0.33777931      -0.33311206      -0.50000000 </v>
  </varray>
 </structure>
 <varray name="primitive_index" >
  <v type="int" >        1 </v>
  <v type="int" >       96 </v>
  <v type="int" >       90 </v>
  <v type="int" >       49 </v>
  <v type="int" >        7 </v>
  <v type="int" >        9 </v>
  <v type="int" >        2 </v>
  <v type="int" >       42 </v>
  <v type="int" >       48 </v>
  <v type="int" >        8 </v>
  <v type="int" >       50 </v>
  <v type="int" >       55 </v>
  <v type="int" >       89 </v>
  <v type="int" >       95 </v>
  <v type="int" >       88 </v>
  <v type="int" >       57 </v>
  <v type="int" >       83 </v>
  <v type="int" >       91 </v>
  <v type="int" >       56 </v>
  <v type="int" >       47 </v>
  <v type="int" >       10 </v>
  <v type="int" >       14 </v>
  <v type="int" >       41 </v>
  <v type="int" >       43 </v>
  <v type="int" >       16 </v>
  <v type="int" >        6 </v>
  <v type="int" >       35 </v>
  <v type="int" >       17 </v>
  <v type="int" >       15 </v>
  <v type="int" >        3 </v>
  <v type="int" >       40 </v>
  <v type="int" >       82 </v>
  <v type="int" >       58 </v>
  <v type="int" >       51 </v>
  <v type="int" >       54 </v>
  <v type="int" >       62 </v>
  <v type="int" >       81 </v>
  <v type="int" >       87 </v>
  <v type="int" >       64 </v>
  <v type="int" >       84 </v>
  <v type="int" >       94 </v>
  <v type="int" >       77 </v>
  <v type="int" >       65 </v>
  <v type="int" >       63 </v>
  <v type="int" >       92 </v>
  <v type="int" >       39 </v>
  <v type="int" >       46 </v>
  <v type="int" >       18 </v>
  <v type="int" >       34 </v>
  <v type="int" >       13 </v>
  <v type="int" >       33 </v>
  <v type="int" >       11 </v>
  <v type="int" >       21 </v>
  <v type="int" >       23 </v>
  <v type="int" >       24 </v>
  <v type="int" >       36 </v>
  <v type="int" >       44 </v>
  <v type="int" >       75 </v>
  <v type="int" >       59 </v>
  <v type="int" >       61 </v>
  <v type="int" >       25 </v>
  <v type="int" >        5 </v>
  <v type="int" >       29 </v>
  <v type="int" >       22 </v>
  <v type="int" >        4 </v>
  <v type="int" >       97 </v>
  <v type="int" >       66 </v>
  <v type="int" >       76 </v>
  <v type="int" >       53 </v>
  <v type="int" >       52 </v>
  <v type="int" >       69 </v>
  <v type="int" >       74 </v>
  <v type="int" >       80 </v>
  <v type="int" >       86 </v>
  <v type="int" >       71 </v>
  <v type="int" >       72 </v>
  <v type="int" >       78 </v>
  <v type="int" >       85 </v>
  <v type="int" >       38 </v>
  <v type="int" >       27 </v>
  <v type="int" >       19 </v>
  <v type="int" >       20 </v>
  <v type="int" >       31 </v>
  <v type="int" >       37 </v>
  <v type="int" >       93 </v>
  <v type="int" >       73 </v>
  <v type="int" >       70 </v>
  <v type="int" >       32 </v>
  <v type="int" >       45 </v>
  <v type="int" >       26 </v>
  <v type="int" >       28 </v>
  <v type="int" >       12 </v>
  <v type="int" >       30 </v>
  <v type="int" >       68 </v>
  <v type="int" >       60 </v>
  <v type="int" >       67 </v>
  <v type="int" >       79 </v>
 </varray>
 <kpoints>
  <generation param="Gamma">
   <v type="int" name="divisions">       1        1        1 </v>
   <v name="usershift">      0.00000000       0.00000000       0.00000000 </v>
   <v name="genvec1">      1.00000000      -0.00000000       0.00000000 </v>
   <v name="genvec2">      0.00000000       1.00000000       0.00000000 </v>
   <v name="genvec3">      0.00000000       0.00000000       1.00000000 </v>
   <v name="shift">      0.00000000       0.00000000       0.00000000 </v>
  </generation>
  <varray name="kpointlist" >
   <v>       0.00000000       0.00000000       0.00000000 </v>
  </varray>
  <varray name="weights" >
   <v>       1.00000000 </v>
  </varray>
 </kpoints>
 <parameters>
  <separator name="general" >
   <i type="string" name="SYSTEM">unknown system</i>
   <i type="logical" name="LCOMPAT"> F  </i>
  </separator>
  <separator name="electronic" >
   <i type="string" name="PREC">accura</i>
   <i name="ENMAX">    500.00000000</i>
   <i name="ENAUG">    644.87300000</i>
   <i name="EDIFF">      0.00000001</i>
   <i type="int" name="IALGO">    38</i>
   <i type="int" name="IWAVPR">    10</i>
   <i type="int" name="NBANDS">   244</i>
   <i name="NELECT">    388.00000000</i>
   <i type="int" name="TURBO">     0</i>
   <i type="int" name="IRESTART">     0</i>
   <i type="int" name="NREBOOT">     0</i>
   <i type="int" name="NMIN">     0</i>
   <i name="EREF">      0.00000000</i>
   <separator name="electronic smearing" >
    <i type="int" name="ISMEAR">     0</i>
    <i name="SIGMA">      0.01000000</i>
    <i name="KSPACING">      0.50000000</i>
    <i type="logical" name="KGAMMA"> T  </i>
   </separator>
   <separator name="electronic projectors" >
    <i type="logical" name="LREAL"> F  </i>
    <v name="ROPT">      0.00000000      0.00000000      0.00000000</v>
    <i type="int" name="LMAXPAW">  -100</i>
    <i type="int" name="LMAXMIX">     2</i>
    <i type="logical" name="NLSPLINE"> F  </i>
   </separator>
   <separator name="electronic startup" >
    <i type="int" name="ISTART">     0</i>
    <i type="int" name="ICHARG">     2</i>
    <i type="int" name="INIWAV">     1</i>
   </separator>
   <separator name="electronic spin" >
    <i type="int" name="ISPIN">     1</i>
    <i type="logical" name="LNONCOLLINEAR"> F  </i>
    <v name="MAGMOM">      1.00000000      1.00000000      1.00000000      1.00000000      1.00000000      1.00000000      1.00000000      1.00000000      1.00000000      1.00000000      1.00000000      1.00000000      1.00000000      1.00000000      1.00000000      1.00000000      1.00000000      1.00000000      1.00000000      1.00000000
      1.00000000      1.00000000      1.00000000      1.00000000      1.00000000      1.00000000      1.00000000      1.00000000      1.00000000      1.00000000      1.00000000      1.00000000      1.00000000      1.00000000      1.00000000      1.00000000      1.00000000      1.00000000      1.00000000      1.00000000
      1.00000000      1.00000000      1.00000000      1.00000000      1.00000000      1.00000000      1.00000000      1.00000000      1.00000000      1.00000000      1.00000000      1.00000000      1.00000000      1.00000000      1.00000000      1.00000000      1.00000000      1.00000000      1.00000000      1.00000000
      1.00000000      1.00000000      1.00000000      1.00000000      1.00000000      1.00000000      1.00000000      1.00000000      1.00000000      1.00000000      1.00000000      1.00000000      1.00000000      1.00000000      1.00000000      1.00000000      1.00000000      1.00000000      1.00000000      1.00000000
      1.00000000      1.00000000      1.00000000      1.00000000      1.00000000      1.00000000      1.00000000      1.00000000      1.00000000      1.00000000      1.00000000      1.00000000      1.00000000      1.00000000      1.00000000      1.00000000      1.00000000</v>
    <i name="NUPDOWN">     -1.00000000</i>
    <i type="logical" name="LSORBIT"> F  </i>
    <v name="SAXIS">      0.00000000      0.00000000      1.00000000</v>
    <i type="logical" name="LSPIRAL"> F  </i>
    <v name="QSPIRAL">      0.00000000      0.00000000      0.00000000</v>
    <i type="logical" name="LZEROZ"> F  </i>
   </separator>
   <separator name="electronic exchange-correlation" >
    <i type="logical" name="LASPH"> F  </i>
    <i type="logical" name="LMETAGGA"> F  </i>
   </separator>
   <separator name="electronic convergence" >
    <i type="int" name="NELM">    60</i>
    <i type="int" name="NELMDL">    -5</i>
    <i type="int" name="NELMIN">     5</i>
    <i name="ENINI">    500.00000000</i>
    <separator name="electronic convergence detail" >
     <i type="logical" name="LDIAG"> T  </i>
     <i type="logical" name="LSUBROT"> F  </i>
     <i name="WEIMIN">      0.00000000</i>
     <i name="EBREAK">      0.00000000</i>
     <i name="DEPER">      0.30000000</i>
     <i type="int" name="NRMM">     4</i>
     <i name="TIME">      0.40000000</i>
    </separator>
   </separator>
   <separator name="electronic mixer" >
    <i name="AMIX">      0.40000000</i>
    <i name="BMIX">      1.00000000</i>
    <i name="AMIN">      0.10000000</i>
    <i name="AMIX_MAG">      1.60000000</i>
    <i name="BMIX_MAG">      1.00000000</i>
    <separator name="electronic mixer details" >
     <i type="int" name="IMIX">     4</i>
     <i type="logical" name="MIXFIRST"> F  </i>
     <i type="int" name="MAXMIX">   -45</i>
     <i name="WC">    100.00000000</i>
     <i type="int" name="INIMIX">     1</i>
     <i type="int" name="MIXPRE">     1</i>
     <i type="int" name="MREMOVE">     5</i>
    </separator>
   </separator>
   <separator name="electronic dipolcorrection" >
    <i type="logical" name="LDIPOL"> F  </i>
    <i type="logical" name="LMONO"> F  </i>
    <i type="int" name="IDIPOL">     0</i>
    <i name="EPSILON">      1.00000000</i>
    <v name="DIPOL">   -100.00000000   -100.00000000   -100.00000000</v>
    <i name="EFIELD">      0.00000000</i>
   </separator>
  </separator>
  <separator name="grids" >
   <i type="int" name="NGX">   128</i>
   <i type="int" name="NGY">   128</i>
   <i type="int" name="NGZ">   150</i>
   <i type="int" name="NGXF">   256</i>
   <i type="int" name="NGYF">   256</i>
   <i type="int" name="NGZF">   300</i>
   <i type="logical" name="ADDGRID"> T  </i>
  </separator>
  <separator name="ionic" >
   <i type="int" name="NSW">     0</i>
   <i type="int" name="IBRION">    -1</i>
   <i type="int" name="MDALGO">     0</i>
   <i type="int" name="ISIF">     2</i>
   <i name="PSTRESS">      0.00000000</i>
   <i name="EDIFFG">     -0.00000001</i>
   <i type="int" name="NFREE">     0</i>
   <i name="POTIM">      0.50000000</i>
   <i name="SMASS">     -3.00000000</i>
   <i name="SCALEE">      1.00000000</i>
  </separator>
  <separator name="ionic md" >
   <i name="TEBEG">      0.00010000</i>
   <i name="TEEND">      0.00010000</i>
   <i type="int" name="NBLOCK">     1</i>
   <i type="int" name="KBLOCK">     1</i>
   <i type="int" name="NPACO">   256</i>
   <i name="APACO">     16.00000000</i>
  </separator>
  <separator name="symmetry" >
   <i type="int" name="ISYM">     2</i>
   <i name="SYMPREC">      0.00001000</i>
  </separator>
  <separator name="dos" >
   <i type="int" name="LORBIT">     0</i>
   <v name="RWIGS">     -1.00000000     -1.00000000     -1.00000000</v>
   <i type="int" name="NEDOS">   301</i>
   <i name="EMIN">     10.00000000</i>
   <i name="EMAX">    -10.00000000</i>
   <i name="EFERMI">      0.00000000</i>
  </separator>
  <separator name="writing" >
   <i type="int" name="NWRITE">     2</i>
   <i type="logical" name="LWAVE"> F  </i>
   <i type="logical" name="LDOWNSAMPLE"> F  </i>
   <i type="logical" name="LCHARG"> F  </i>
   <i type="logical" name="LPARD"> F  </i>
   <i type="logical" name="LVTOT"> F  </i>
   <i type="logical" name="LVHAR"> F  </i>
   <i type="logical" name="LELF"> F  </i>
   <i type="logical" name="LOPTICS"> F  </i>
   <v name="STM">      0.00000000      0.00000000      0.00000000      0.00000000      0.00000000      0.00000000      0.00000000</v>
  </separator>
  <separator name="performance" >
   <i type="int" name="NPAR">     4</i>
   <i type="int" name="NSIM">     4</i>
   <i type="int" name="NBLK">    -1</i>
   <i type="logical" name="LPLANE"> T  </i>
   <i type="logical" name="LSCALAPACK"> T  </i>
   <i type="logical" name="LSCAAWARE"> F  </i>
   <i type="logical" name="LSCALU"> F  </i>
   <i type="logical" name="LASYNC"> F  </i>
   <i type="logical" name="LORBITALREAL"> F  </i>
  </separator>
  <separator name="miscellaneous" >
   <i type="int" name="IDIOT">     3</i>
   <i type="int" name="ISPECIAL">     0</i>
   <i type="logical" name="LMUSIC"> F  </i>
   <v name="POMASS">     10.81100000     14.00100000     12.01100000</v>
   <v name="DARWINR">      0.00000000      0.00000000      0.00000000</v>
   <v name="DARWINV">      1.00000000      1.00000000      1.00000000</v>
   <i type="logical" name="LCORR"> T  </i>
  </separator>
  <i type="logical" name="GGA_COMPAT"> T  </i>
  <i type="logical" name="LBERRY"> F  </i>
  <i type="int" name="ICORELEVEL">     0</i>
  <i type="logical" name="LDAU"> F  </i>
  <i type="int" name="I_CONSTRAINED_M">     0</i>
  <separator name="electronic exchange-correlation" >
   <i type="string" name="GGA">--</i>
   <i type="int" name="VOSKOWN">     0</i>
   <i type="logical" name="LHFCALC"> F  </i>
   <i type="string" name="PRECFOCK"></i>
   <i type="logical" name="LSYMGRAD"> F  </i>
   <i type="logical" name="LHFONE"> F  </i>
   <i type="logical" name="LRHFCALC"> F  </i>
   <i type="logical" name="LTHOMAS"> F  </i>
   <i type="logical" name="LMODELHF"> F  </i>
   <i name="ENCUT4O">     -1.00000000</i>
   <i type="int" name="EXXOEP">     0</i>
   <i type="int" name="FOURORBIT">     0</i>
   <i name="AEXX">      0.00000000</i>
   <i name="HFALPHA">      0.00000000</i>
   <i name="MCALPHA">      0.00000000</i>
   <i name="ALDAX">      1.00000000</i>
   <i name="AGGAX">      1.00000000</i>
   <i name="ALDAC">      1.00000000</i>
   <i name="AGGAC">      1.00000000</i>
   <i type="int" name="NKREDX">     1</i>
   <i type="int" name="NKREDY">     1</i>
   <i type="int" name="NKREDZ">     1</i>
   <i type="logical" name="SHIFTRED"> F  </i>
   <i type="logical" name="ODDONLY"> F  </i>
   <i type="logical" name="EVENONLY"> F  </i>
   <i type="int" name="LMAXFOCK">     0</i>
   <i type="int" name="NMAXFOCKAE">     0</i>
   <i type="logical" name="LFOCKAEDFT"> F  </i>
   <i name="HFSCREEN">      0.00000000</i>
   <i name="HFSCREENC">      0.00000000</i>
   <i type="int" name="NBANDSGWLOW">     0</i>
  </separator>
  <separator name="vdW DFT" >
   <i type="logical" name="LUSE_VDW"> F  </i>
   <i name="Zab_VDW">     -0.84910000</i>
   <i name="PARAM1">      0.12340000</i>
   <i name="PARAM2">      1.00000000</i>
   <i name="PARAM3">      0.00000000</i>
  </separator>
  <separator name="model GW" >
   <i type="int" name="MODEL_GW">     0</i>
   <i name="MODEL_EPS0">     33.05532754</i>
   <i name="MODEL_ALPHA">      1.00000000</i>
  </separator>
  <separator name="linear response parameters" >
   <i type="logical" name="LEPSILON"> F  </i>
   <i type="logical" name="LRPA"> F  </i>
   <i type="logical" name="LNABLA"> F  </i>
   <i type="logical" name="LVEL"> F  </i>
   <i type="int" name="KINTER">     0</i>
   <i name="CSHIFT">      0.10000000</i>
   <i name="OMEGAMAX">     -1.00000000</i>
   <i name="DEG_THRESHOLD">      0.00200000</i>
   <i name="RTIME">     -0.10000000</i>
   <i name="WPLASMAI">      0.00000000</i>
   <v name="DFIELD">      0.00000000      0.00000000      0.00000000</v>
   <v name="WPLASMA">      0.00000000      0.00000000      0.00000000      0.00000000      0.00000000      0.00000000      0.00000000      0.00000000      0.00000000</v>
  </separator>
  <separator name="orbital magnetization" >
   <i type="logical" name="NUCIND"> F  </i>
   <v name="MAGPOS">      0.00000000      0.00000000      0.00000000</v>
   <i type="logical" name="LNICSALL"> T  </i>
   <i type="logical" name="ORBITALMAG"> F  </i>
   <i type="logical" name="LMAGBLOCH"> F  </i>
   <i type="logical" name="LCHIMAG"> F  </i>
   <i type="logical" name="LGAUGE"> T  </i>
   <i type="int" name="MAGATOM">     0</i>
   <v name="MAGDIPOL">      0.00000000      0.00000000      0.00000000</v>
   <v name="AVECCONST">      0.00000000      0.00000000      0.00000000</v>
  </separator>
  <separator name="response functions" >
   <i type="logical" name="LADDER"> F  </i>
   <i type="logical" name="LRPAFORCE"> F  </i>
   <i type="logical" name="LFXC"> F  </i>
   <i type="logical" name="LHARTREE"> T  </i>
   <i type="int" name="IBSE">     0</i>
   <v type="int" name="KPOINT">    -1     0     0     0</v>
   <i type="logical" name="LTCTE"> F  </i>
   <i type="logical" name="LTETE"> F  </i>
   <i type="logical" name="LTRIPLET"> F  </i>
   <i type="logical" name="LFXCEPS"> F  </i>
   <i type="logical" name="LFXHEG"> F  </i>
   <i type="int" name="NATURALO">     2</i>
   <i type="logical" name="L2ORDER"> F  </i>
   <i type="logical" name="LMP2LT"> F  </i>
   <i type="logical" name="LUSEW"> F  </i>
   <i name="ENCUTGW">     -2.00000000</i>
   <i name="ENCUTGWSOFT">     -2.00000000</i>
   <i name="ENCUTLF">     -1.00000000</i>
   <i type="int" name="LMAXMP2">    -1</i>
   <i name="SCISSOR">      0.00000000</i>
   <i type="int" name="NOMEGA">     0</i>
   <i type="int" name="NOMEGAR">     0</i>
   <i type="int" name="NBANDSGW">    -1</i>
   <i type="int" name="NBANDSO">    -1</i>
   <i type="int" name="NBANDSV">    -1</i>
   <i type="int" name="NELM">     1</i>
   <i type="int" name="NELMHF">     1</i>
   <i type="int" name="DIM">     3</i>
   <i type="int" name="ANTIRES">     0</i>
   <i name="OMEGAMAX">    -30.00000000</i>
   <i name="OMEGAMIN">    -30.00000000</i>
   <i name="OMEGATL">   -200.00000000</i>
   <i type="int" name="OMEGAGRID">   140</i>
   <i name="CSHIFT">     -0.10000000</i>
   <i type="logical" name="SELFENERGY"> F  </i>
   <i type="logical" name="LSPECTRAL"> F  </i>
   <i type="logical" name="LSPECTRALGW"> F  </i>
   <i type="logical" name="LSINGLES"> F  </i>
   <i type="logical" name="LFERMIGW"> F  </i>
   <i type="logical" name="ODDONLYGW"> F  </i>
   <i type="logical" name="EVENONLYGW"> F  </i>
   <i type="int" name="NKREDLFX">     1</i>
   <i type="int" name="NKREDLFY">     1</i>
   <i type="int" name="NKREDLFZ">     1</i>
   <i type="int" name="MAXMEM">  2800</i>
   <i type="int" name="TELESCOPE">     0</i>
   <i type="int" name="TAUPAR">     1</i>
   <i type="int" name="OMEGAPAR">    -1</i>
   <i name="LAMBDA">      1.00000000</i>
  </separator>
  <separator name="External order field" >
   <i name="OFIELD_KAPPA">      0.00000000</i>
   <v name="OFIELD_K">      0.00000000      0.00000000      0.00000000</v>
   <i name="OFIELD_Q6_NEAR">      0.00000000</i>
   <i name="OFIELD_Q6_FAR">      0.00000000</i>
   <i name="OFIELD_A">      0.00000000</i>
  </separator>
 </parameters>
 <atominfo>
  <atoms>      97 </atoms>
  <types>       3 </types>
  <array name="atoms" >
   <dimension dim="1">ion</dimension>
   <field type="string">element</field>
   <field type="int">atomtype</field>
   <set>
    <rc><c>B </c><c>   1</c></rc>
    <rc><c>B </c><c>   1</c></rc>
    <rc><c>B </c><c>   1</c></rc>
    <rc><c>B </c><c>   1</c></rc>
    <rc><c>B </c><c>   1</c></rc>
    <rc><c>B </c><c>   1</c></rc>
    <rc><c>B </c><c>   1</c></rc>
    <rc><c>B </c><c>   1</c></rc>
    <rc><c>B </c><c>   1</c></rc>
    <rc><c>B </c><c>   1</c></rc>
    <rc><c>B </c><c>   1</c></rc>
    <rc><c>B </c><c>   1</c></rc>
    <rc><c>B </c><c>   1</c></rc>
    <rc><c>B </c><c>   1</c></rc>
    <rc><c>B </c><c>   1</c></rc>
    <rc><c>B </c><c>   1</c></rc>
    <rc><c>B </c><c>   1</c></rc>
    <rc><c>B </c><c>   1</c></rc>
    <rc><c>B </c><c>   1</c></rc>
    <rc><c>B </c><c>   1</c></rc>
    <rc><c>B </c><c>   1</c></rc>
    <rc><c>B </c><c>   1</c></rc>
    <rc><c>B </c><c>   1</c></rc>
    <rc><c>B </c><c>   1</c></rc>
    <rc><c>B </c><c>   1</c></rc>
    <rc><c>B </c><c>   1</c></rc>
    <rc><c>B </c><c>   1</c></rc>
    <rc><c>B </c><c>   1</c></rc>
    <rc><c>B </c><c>   1</c></rc>
    <rc><c>B </c><c>   1</c></rc>
    <rc><c>B </c><c>   1</c></rc>
    <rc><c>B </c><c>   1</c></rc>
    <rc><c>B </c><c>   1</c></rc>
    <rc><c>B </c><c>   1</c></rc>
    <rc><c>B </c><c>   1</c></rc>
    <rc><c>B </c><c>   1</c></rc>
    <rc><c>B </c><c>   1</c></rc>
    <rc><c>B </c><c>   1</c></rc>
    <rc><c>B </c><c>   1</c></rc>
    <rc><c>B </c><c>   1</c></rc>
    <rc><c>B </c><c>   1</c></rc>
    <rc><c>B </c><c>   1</c></rc>
    <rc><c>B </c><c>   1</c></rc>
    <rc><c>B </c><c>   1</c></rc>
    <rc><c>B </c><c>   1</c></rc>
    <rc><c>B </c><c>   1</c></rc>
    <rc><c>B </c><c>   1</c></rc>
    <rc><c>B </c><c>   1</c></rc>
    <rc><c>N </c><c>   2</c></rc>
    <rc><c>N </c><c>   2</c></rc>
    <rc><c>N </c><c>   2</c></rc>
    <rc><c>N </c><c>   2</c></rc>
    <rc><c>N </c><c>   2</c></rc>
    <rc><c>N </c><c>   2</c></rc>
    <rc><c>N </c><c>   2</c></rc>
    <rc><c>N </c><c>   2</c></rc>
    <rc><c>N </c><c>   2</c></rc>
    <rc><c>N </c><c>   2</c></rc>
    <rc><c>N </c><c>   2</c></rc>
    <rc><c>N </c><c>   2</c></rc>
    <rc><c>N </c><c>   2</c></rc>
    <rc><c>N </c><c>   2</c></rc>
    <rc><c>N </c><c>   2</c></rc>
    <rc><c>N </c><c>   2</c></rc>
    <rc><c>N </c><c>   2</c></rc>
    <rc><c>N </c><c>   2</c></rc>
    <rc><c>N </c><c>   2</c></rc>
    <rc><c>N </c><c>   2</c></rc>
    <rc><c>N </c><c>   2</c></rc>
    <rc><c>N </c><c>   2</c></rc>
    <rc><c>N </c><c>   2</c></rc>
    <rc><c>N </c><c>   2</c></rc>
    <rc><c>N </c><c>   2</c></rc>
    <rc><c>N </c><c>   2</c></rc>
    <rc><c>N </c><c>   2</c></rc>
    <rc><c>N </c><c>   2</c></rc>
    <rc><c>N </c><c>   2</c></rc>
    <rc><c>N </c><c>   2</c></rc>
    <rc><c>N </c><c>   2</c></rc>
    <rc><c>N </c><c>   2</c></rc>
    <rc><c>N </c><c>   2</c></rc>
    <rc><c>N </c><c>   2</c></rc>
    <rc><c>N </c><c>   2</c></rc>
    <rc><c>N </c><c>   2</c></rc>
    <rc><c>N </c><c>   2</c></rc>
    <rc><c>N </c><c>   2</c></rc>
    <rc><c>N </c><c>   2</c></rc>
    <rc><c>N </c><c>   2</c></rc>
    <rc><c>N </c><c>   2</c></rc>
    <rc><c>N </c><c>   2</c></rc>
    <rc><c>N </c><c>   2</c></rc>
    <rc><c>N </c><c>   2</c></rc>
    <rc><c>N </c><c>   2</c></rc>
    <rc><c>N </c><c>   2</c></rc>
    <rc><c>N </c><c>   2</c></rc>
    <rc><c>N </c><c>   2</c></rc>
    <rc><c>C </c><c>   3</c></rc>
   </set>
  </array>
  <array name="atomtypes" >
   <dimension dim="1">type</dimension>
   <field type="int">atomspertype</field>
   <field type="string">element</field>
   <field>mass</field>
   <field>valence</field>
   <field type="string">pseudopotential</field>
   <set>
    <rc><c>  48</c><c>B </c><c>     10.81100000</c><c>      3.00000000</c><c>  PAW_PBE B 06Sep2000                   </c></rc>
    <rc><c>  48</c><c>N </c><c>     14.00100000</c><c>      5.00000000</c><c>  PAW_PBE N 08Apr2002                   </c></rc>
    <rc><c>   1</c><c>C </c><c>     12.01100000</c><c>      4.00000000</c><c>  PAW_PBE C 08Apr2002                   </c></rc>
   </set>
  </array>
 </atominfo>
 <structure name="initialpos" >
  <crystal>
   <varray name="basis" >
    <v>      17.59966831       0.00000000       0.00000000 </v>
    <v>      -8.79983416      15.24175986       0.00000000 </v>
    <v>       0.00000000       0.00000000      19.92151445 </v>
   </varray>
   <i name="volume">   5343.94461817 </i>
   <varray name="rec_basis" >
    <v>       0.05681925       0.03280461       0.00000000 </v>
    <v>       0.00000000       0.06560922       0.00000000 </v>
    <v>       0.00000000       0.00000000       0.05019699 </v>
   </varray>
  </crystal>
  <varray name="positions" >
   <v>       0.99943010       0.00005992       0.50000000 </v>
   <v>       0.14164706       0.99871895       0.50000000 </v>
   <v>       0.28492260       0.99841663       0.50000000 </v>
   <v>       0.42850047       0.99871895       0.50000000 </v>
   <v>       0.57205839       0.00005992       0.50000000 </v>
   <v>       0.71530655       0.00214292       0.50000000 </v>
   <v>       0.85826494       0.00214292       0.50000000 </v>
   <v>       0.00080792       0.14408264       0.50000000 </v>
   <v>       0.14259355       0.14244783       0.50000000 </v>
   <v>       0.28470221       0.14112972       0.50000000 </v>
   <v>       0.42785608       0.14112972       0.50000000 </v>
   <v>       0.57128286       0.14244783       0.50000000 </v>
   <v>       0.71470329       0.14408264       0.50000000 </v>
   <v>       0.85805263       0.14467669       0.50000000 </v>
   <v>       0.00095476       0.28713011       0.50000000 </v>
   <v>       0.14372552       0.28645370       0.50000000 </v>
   <v>       0.28540977       0.28469374       0.50000000 </v>
   <v>       0.42724431       0.28306005       0.50000000 </v>
   <v>       0.57071254       0.28469374       0.50000000 </v>
   <v>       0.71415674       0.28645370       0.50000000 </v>
   <v>       0.85760392       0.28713011       0.50000000 </v>
   <v>       0.00054479       0.42966101       0.50000000 </v>
   <v>       0.14422690       0.42957551       0.50000000 </v>
   <v>       0.28730213       0.42918005       0.50000000 </v>
   <v>       0.42797654       0.42569726       0.50000000 </v>
   <v>       0.56914930       0.42569726       0.50000000 </v>
   <v>       0.71330650       0.42918005       0.50000000 </v>
   <v>       0.85677719       0.42957551       0.50000000 </v>
   <v>       0.99928255       0.57181462       0.50000000 </v>
   <v>       0.14396064       0.57181462       0.50000000 </v>
   <v>       0.28862787       0.57181625       0.50000000 </v>
   <v>       0.43313209       0.57215564       0.50000000 </v>
   <v>       0.71045212       0.57215564       0.50000000 </v>
   <v>       0.85461695       0.57181625       0.50000000 </v>
   <v>       0.99707234       0.71370518       0.50000000 </v>
   <v>       0.14255519       0.71368182       0.50000000 </v>
   <v>       0.28806142       0.71370518       0.50000000 </v>
   <v>       0.43464191       0.71382540       0.50000000 </v>
   <v>       0.58510826       0.71626937       0.50000000 </v>
   <v>       0.70258968       0.71626937       0.50000000 </v>
   <v>       0.85061206       0.71382540       0.50000000 </v>
   <v>       0.99777175       0.85613493       0.50000000 </v>
   <v>       0.14160898       0.85591288       0.50000000 </v>
   <v>       0.28573247       0.85591288       0.50000000 </v>
   <v>       0.42979175       0.85613493       0.50000000 </v>
   <v>       0.57342541       0.85758690       0.50000000 </v>
   <v>       0.71640633       0.86138410       0.50000000 </v>
   <v>       0.85559006       0.85758690       0.50000000 </v>
   <v>       0.04754270       0.09547788       0.50000000 </v>
   <v>       0.18957833       0.09405657       0.50000000 </v>
   <v>       0.33254182       0.09365506       0.50000000 </v>
   <v>       0.47590681       0.09405657       0.50000000 </v>
   <v>       0.61936376       0.09547788       0.50000000 </v>
   <v>       0.76280004       0.09776093       0.50000000 </v>
   <v>       0.90582126       0.09719274       0.50000000 </v>
   <v>       0.04854983       0.23934281       0.50000000 </v>
   <v>       0.19048138       0.23782962       0.50000000 </v>
   <v>       0.33234878       0.23634667       0.50000000 </v>
   <v>       0.47542646       0.23634667       0.50000000 </v>
   <v>       0.61877681       0.23782962       0.50000000 </v>
   <v>       0.76222155       0.23934281       0.50000000 </v>
   <v>       0.90562797       0.23982737       0.50000000 </v>
   <v>       0.04871288       0.38232824       0.50000000 </v>
   <v>       0.19188940       0.38184213       0.50000000 </v>
   <v>       0.33352206       0.38013969       0.50000000 </v>
   <v>       0.47472270       0.37801683       0.50000000 </v>
   <v>       0.61804620       0.38013969       0.50000000 </v>
   <v>       0.76138130       0.38184213       0.50000000 </v>
   <v>       0.90504393       0.38232824       0.50000000 </v>
   <v>       0.04810654       0.52478452       0.50000000 </v>
   <v>       0.19263929       0.52476864       0.50000000 </v>
   <v>       0.33696521       0.52455433       0.50000000 </v>
   <v>       0.47833704       0.52146721       0.50000000 </v>
   <v>       0.61455874       0.52146721       0.50000000 </v>
   <v>       0.75901769       0.52455433       0.50000000 </v>
   <v>       0.90355792       0.52476864       0.50000000 </v>
   <v>       0.04642473       0.66685228       0.50000000 </v>
   <v>       0.19185612       0.66685228       0.50000000 </v>
   <v>       0.33777931       0.66688794       0.50000000 </v>
   <v>       0.48615700       0.66710760       0.50000000 </v>
   <v>       0.75237918       0.66710760       0.50000000 </v>
   <v>       0.90053720       0.66688794       0.50000000 </v>
   <v>       0.04582562       0.80879365       0.50000000 </v>
   <v>       0.19009580       0.80876303       0.50000000 </v>
   <v>       0.33439660       0.80879365       0.50000000 </v>
   <v>       0.47844872       0.80897069       0.50000000 </v>
   <v>       0.62209487       0.81129474       0.50000000 </v>
   <v>       0.76062845       0.81129474       0.50000000 </v>
   <v>       0.90195054       0.80897069       0.50000000 </v>
   <v>       0.04629157       0.95154386       0.50000000 </v>
   <v>       0.18948291       0.95113037       0.50000000 </v>
   <v>       0.33307603       0.95113037       0.50000000 </v>
   <v>       0.47668087       0.95154386       0.50000000 </v>
   <v>       0.62015751       0.95313740       0.50000000 </v>
   <v>       0.76355772       0.95568687       0.50000000 </v>
   <v>       0.90440847       0.95313740       0.50000000 </v>
   <v>       0.56830873       0.56518888       0.50000000 </v>
  </varray>
 </structure>
 <calculation>
  <scstep>
   <time name="dav">    2.35    2.37</time>
   <time name="total">    2.73    2.81</time>
   <energy>
    <i name="alphaZ">    156.50993408 </i>
    <i name="ewald">  58206.80488069 </i>
    <i name="hartreedc"> -70374.22571113 </i>
    <i name="XCdc">   1302.10874984 </i>
    <i name="pawpsdc">  12033.28670802 </i>
    <i name="pawaedc"> -12049.96799276 </i>
    <i name="eentropy">     -0.00000000 </i>
    <i name="bandstr">   -904.58110560 </i>
    <i name="atom">  16260.93880140 </i>
    <i name="e_fr_energy">   4630.87426454 </i>
    <i name="e_wo_entrp">   4630.87426454 </i>
    <i name="e_0_energy">   4630.87426454 </i>
   </energy>
  </scstep>
  <scstep>
   <time name="dav">    2.99    3.03</time>
   <time name="total">    2.99    3.03</time>
   <energy>
    <i name="e_fr_energy">    216.82079803 </i>
    <i name="e_wo_entrp">    216.82079803 </i>
    <i name="e_0_energy">    216.82079803 </i>
   </energy>
  </scstep>
  <scstep>
   <time name="dav">    2.94    2.98</time>
   <time name="total">    2.94    2.98</time>
   <energy>
    <i name="e_fr_energy">   -867.46935126 </i>
    <i name="e_wo_entrp">   -867.46935126 </i>
    <i name="e_0_energy">   -867.46935126 </i>
   </energy>
  </scstep>
  <scstep>
   <time name="dav">    2.50    2.53</time>
   <time name="total">    2.50    2.53</time>
   <energy>
    <i name="e_fr_energy">   -934.19638300 </i>
    <i name="e_wo_entrp">   -934.19638300 </i>
    <i name="e_0_energy">   -934.19638300 </i>
   </energy>
  </scstep>
  <scstep>
   <time name="dav">    2.50    2.53</time>
   <time name="total">    2.94    2.97</time>
   <energy>
    <i name="e_fr_energy">   -935.77463880 </i>
    <i name="e_wo_entrp">   -935.77463880 </i>
    <i name="e_0_energy">   -935.77463880 </i>
   </energy>
  </scstep>
  <scstep>
   <time name="dav">    2.33    2.34</time>
   <time name="total">    3.14    3.16</time>
   <energy>
    <i name="e_fr_energy">   -858.72674815 </i>
    <i name="e_wo_entrp">   -858.72674815 </i>
    <i name="e_0_energy">   -858.72674815 </i>
   </energy>
  </scstep>
  <scstep>
   <time name="dav">    2.36    2.38</time>
   <time name="total">    3.16    3.20</time>
   <energy>
    <i name="e_fr_energy">   -850.19281149 </i>
    <i name="e_wo_entrp">   -850.19281149 </i>
    <i name="e_0_energy">   -850.19281149 </i>
   </energy>
  </scstep>
  <scstep>
   <time name="dav">    2.28    2.30</time>
   <time name="total">    3.08    3.12</time>
   <energy>
    <i name="e_fr_energy">   -845.92635112 </i>
    <i name="e_wo_entrp">   -845.92635011 </i>
    <i name="e_0_energy">   -845.92635062 </i>
   </energy>
  </scstep>
  <scstep>
   <time name="dav">    2.31    2.32</time>
   <time name="total">    3.11    3.15</time>
   <energy>
    <i name="e_fr_energy">   -845.80068944 </i>
    <i name="e_wo_entrp">   -845.80068944 </i>
    <i name="e_0_energy">   -845.80068944 </i>
   </energy>
  </scstep>
  <scstep>
   <time name="dav">    2.38    2.41</time>
   <time name="total">    3.19    3.23</time>
   <energy>
    <i name="e_fr_energy">   -845.63916411 </i>
    <i name="e_wo_entrp">   -845.63916411 </i>
    <i name="e_0_energy">   -845.63916411 </i>
   </energy>
  </scstep>
  <scstep>
   <time name="dav">    2.22    2.23</time>
   <time name="total">    3.03    3.06</time>
   <energy>
    <i name="e_fr_energy">   -845.58695285 </i>
    <i name="e_wo_entrp">   -845.58695285 </i>
    <i name="e_0_energy">   -845.58695285 </i>
   </energy>
  </scstep>
  <scstep>
   <time name="dav">    2.25    2.27</time>
   <time name="total">    3.07    3.12</time>
   <energy>
    <i name="e_fr_energy">   -845.57398909 </i>
    <i name="e_wo_entrp">   -845.57398909 </i>
    <i name="e_0_energy">   -845.57398909 </i>
   </energy>
  </scstep>
  <scstep>
   <time name="dav">    2.24    2.26</time>
   <time name="total">    3.05    3.08</time>
   <energy>
    <i name="e_fr_energy">   -845.58457147 </i>
    <i name="e_wo_entrp">   -845.58457147 </i>
    <i name="e_0_energy">   -845.58457147 </i>
   </energy>
  </scstep>
  <scstep>
   <time name="dav">    2.23    2.25</time>
   <time name="total">    3.04    3.07</time>
   <energy>
    <i name="e_fr_energy">   -845.59399307 </i>
    <i name="e_wo_entrp">   -845.59399307 </i>
    <i name="e_0_energy">   -845.59399307 </i>
   </energy>
  </scstep>
  <scstep>
   <time name="dav">    2.18    2.20</time>
   <time name="total">    2.99    3.03</time>
   <energy>
    <i name="e_fr_energy">   -845.62541532 </i>
    <i name="e_wo_entrp">   -845.62541532 </i>
    <i name="e_0_energy">   -845.62541532 </i>
   </energy>
  </scstep>
  <scstep>
   <time name="dav">    2.20    2.21</time>
   <time name="total">    3.01    3.04</time>
   <energy>
    <i name="e_fr_energy">   -845.64170378 </i>
    <i name="e_wo_entrp">   -845.64170378 </i>
    <i name="e_0_energy">   -845.64170378 </i>
   </energy>
  </scstep>
  <scstep>
   <time name="dav">    2.31    2.33</time>
   <time name="total">    3.12    3.15</time>
   <energy>
    <i name="e_fr_energy">   -845.64806708 </i>
    <i name="e_wo_entrp">   -845.64806708 </i>
    <i name="e_0_energy">   -845.64806708 </i>
   </energy>
  </scstep>
  <scstep>
   <time name="dav">    2.18    2.20</time>
   <time name="total">    3.00    3.02</time>
   <energy>
    <i name="e_fr_energy">   -845.65124116 </i>
    <i name="e_wo_entrp">   -845.65124116 </i>
    <i name="e_0_energy">   -845.65124116 </i>
   </energy>
  </scstep>
  <scstep>
   <time name="dav">    2.31    2.33</time>
   <time name="total">    3.12    3.16</time>
   <energy>
    <i name="e_fr_energy">   -845.65225961 </i>
    <i name="e_wo_entrp">   -845.65225961 </i>
    <i name="e_0_energy">   -845.65225961 </i>
   </energy>
  </scstep>
  <scstep>
   <time name="dav">    2.23    2.25</time>
   <time name="total">    3.05    3.08</time>
   <energy>
    <i name="e_fr_energy">   -845.65268743 </i>
    <i name="e_wo_entrp">   -845.65268743 </i>
    <i name="e_0_energy">   -845.65268743 </i>
   </energy>
  </scstep>
  <scstep>
   <time name="dav">    2.26    2.27</time>
   <time name="total">    3.07    3.10</time>
   <energy>
    <i name="e_fr_energy">   -845.65288517 </i>
    <i name="e_wo_entrp">   -845.65288517 </i>
    <i name="e_0_energy">   -845.65288517 </i>
   </energy>
  </scstep>
  <scstep>
   <time name="dav">    2.18    2.20</time>
   <time name="total">    2.99    3.02</time>
   <energy>
    <i name="e_fr_energy">   -845.65300386 </i>
    <i name="e_wo_entrp">   -845.65300386 </i>
    <i name="e_0_energy">   -845.65300386 </i>
   </energy>
  </scstep>
  <scstep>
   <time name="dav">    2.23    2.26</time>
   <time name="total">    3.04    3.08</time>
   <energy>
    <i name="e_fr_energy">   -845.65307881 </i>
    <i name="e_wo_entrp">   -845.65307881 </i>
    <i name="e_0_energy">   -845.65307881 </i>
   </energy>
  </scstep>
  <scstep>
   <time name="dav">    2.30    2.32</time>
   <time name="total">    3.12    3.15</time>
   <energy>
    <i name="e_fr_energy">   -845.65311729 </i>
    <i name="e_wo_entrp">   -845.65311729 </i>
    <i name="e_0_energy">   -845.65311729 </i>
   </energy>
  </scstep>
  <scstep>
   <time name="dav">    2.21    2.23</time>
   <time name="total">    3.02    3.05</time>
   <energy>
    <i name="e_fr_energy">   -845.65313551 </i>
    <i name="e_wo_entrp">   -845.65313551 </i>
    <i name="e_0_energy">   -845.65313551 </i>
   </energy>
  </scstep>
  <scstep>
   <time name="dav">    2.24    2.26</time>
   <time name="total">    3.06    3.09</time>
   <energy>
    <i name="e_fr_energy">   -845.65315183 </i>
    <i name="e_wo_entrp">   -845.65315183 </i>
    <i name="e_0_energy">   -845.65315183 </i>
   </energy>
  </scstep>
  <scstep>
   <time name="dav">    2.18    2.20</time>
   <time name="total">    3.00    3.03</time>
   <energy>
    <i name="e_fr_energy">   -845.65315514 </i>
    <i name="e_wo_entrp">   -845.65315514 </i>
    <i name="e_0_energy">   -845.65315514 </i>
   </energy>
  </scstep>
  <scstep>
   <time name="dav">    1.99    2.01</time>
   <time name="total">    2.81    2.84</time>
   <energy>
    <i name="e_fr_energy">   -845.65315642 </i>
    <i name="e_wo_entrp">   -845.65315642 </i>
    <i name="e_0_energy">   -845.65315642 </i>
   </energy>
  </scstep>
  <scstep>
   <time name="dav">    1.74    1.76</time>
   <time name="total">    2.57    2.59</time>
   <energy>
    <i name="e_fr_energy">   -845.65315670 </i>
    <i name="e_wo_entrp">   -845.65315670 </i>
    <i name="e_0_energy">   -845.65315670 </i>
   </energy>
  </scstep>
  <scstep>
   <time name="dav">    1.69    1.71</time>
   <time name="total">    2.50    2.54</time>
   <energy>
    <i name="e_fr_energy">   -845.65315680 </i>
    <i name="e_wo_entrp">   -845.65315680 </i>
    <i name="e_0_energy">   -845.65315680 </i>
   </energy>
  </scstep>
  <scstep>
   <time name="dav">    1.67    1.68</time>
   <time name="total">    2.49    2.52</time>
   <energy>
    <i name="e_fr_energy">   -845.65315686 </i>
    <i name="e_wo_entrp">   -845.65315686 </i>
    <i name="e_0_energy">   -845.65315686 </i>
   </energy>
  </scstep>
  <scstep>
   <time name="dav">    1.72    1.73</time>
   <time name="total">    2.54    2.57</time>
   <energy>
    <i name="e_fr_energy">   -845.65315689 </i>
    <i name="e_wo_entrp">   -845.65315689 </i>
    <i name="e_0_energy">   -845.65315689 </i>
   </energy>
  </scstep>
  <scstep>
   <time name="dav">    1.79    1.80</time>
   <time name="total">    2.16    2.18</time>
   <energy>
    <i name="alphaZ">    156.50993408 </i>
    <i name="ewald">  58206.80488069 </i>
    <i name="hartreedc"> -72314.31918465 </i>
    <i name="XCdc">   1369.72415429 </i>
    <i name="pawpsdc">  44018.80436068 </i>
    <i name="pawaedc"> -44054.14624683 </i>
    <i name="eentropy">     -0.00000000 </i>
    <i name="bandstr">  -4489.96985655 </i>
    <i name="atom">  16260.93880140 </i>
    <i name="e_fr_energy">   -845.65315689 </i>
    <i name="e_wo_entrp">   -845.65315689 </i>
    <i name="e_0_energy">   -845.65315689 </i>
   </energy>
  </scstep>
  <structure>
   <crystal>
    <varray name="basis" >
     <v>      17.59966831       0.00000000       0.00000000 </v>
     <v>      -8.79983416      15.24175986       0.00000000 </v>
     <v>       0.00000000       0.00000000      19.92151445 </v>
    </varray>
    <i name="volume">   5343.94461817 </i>
    <varray name="rec_basis" >
     <v>       0.05681925       0.03280461       0.00000000 </v>
     <v>       0.00000000       0.06560922       0.00000000 </v>
     <v>       0.00000000       0.00000000       0.05019699 </v>
    </varray>
   </crystal>
   <varray name="positions" >
    <v>       0.99943010       0.00005992       0.50000000 </v>
    <v>       0.14164706       0.99871895       0.50000000 </v>
    <v>       0.28492260       0.99841663       0.50000000 </v>
    <v>       0.42850047       0.99871895       0.50000000 </v>
    <v>       0.57205839       0.00005992       0.50000000 </v>
    <v>       0.71530655       0.00214292       0.50000000 </v>
    <v>       0.85826494       0.00214292       0.50000000 </v>
    <v>       0.00080792       0.14408264       0.50000000 </v>
    <v>       0.14259355       0.14244783       0.50000000 </v>
    <v>       0.28470221       0.14112972       0.50000000 </v>
    <v>       0.42785608       0.14112972       0.50000000 </v>
    <v>       0.57128286       0.14244783       0.50000000 </v>
    <v>       0.71470329       0.14408264       0.50000000 </v>
    <v>       0.85805263       0.14467669       0.50000000 </v>
    <v>       0.00095476       0.28713011       0.50000000 </v>
    <v>       0.14372552       0.28645370       0.50000000 </v>
    <v>       0.28540977       0.28469374       0.50000000 </v>
    <v>       0.42724431       0.28306005       0.50000000 </v>
    <v>       0.57071254       0.28469374       0.50000000 </v>
    <v>       0.71415674       0.28645370       0.50000000 </v>
    <v>       0.85760392       0.28713011       0.50000000 </v>
    <v>       0.00054479       0.42966101       0.50000000 </v>
    <v>       0.14422690       0.42957551       0.50000000 </v>
    <v>       0.28730213       0.42918005       0.50000000 </v>
    <v>       0.42797654       0.42569726       0.50000000 </v>
    <v>       0.56914930       0.42569726       0.50000000 </v>
    <v>       0.71330650       0.42918005       0.50000000 </v>
    <v>       0.85677719       0.42957551       0.50000000 </v>
    <v>       0.99928255       0.57181462       0.50000000 </v>
    <v>       0.14396064       0.57181462       0.50000000 </v>
    <v>       0.28862787       0.57181625       0.50000000 </v>
    <v>       0.43313209       0.57215564       0.50000000 </v>
    <v>       0.71045212       0.57215564       0.50000000 </v>
    <v>       0.85461695       0.57181625       0.50000000 </v>
    <v>       0.99707234       0.71370518       0.50000000 </v>
    <v>       0.14255519       0.71368182       0.50000000 </v>
    <v>       0.28806142       0.71370518       0.50000000 </v>
    <v>       0.43464191       0.71382540       0.50000000 </v>
    <v>       0.58510826       0.71626937       0.50000000 </v>
    <v>       0.70258968       0.71626937       0.50000000 </v>
    <v>       0.85061206       0.71382540       0.50000000 </v>
    <v>       0.99777175       0.85613493       0.50000000 </v>
    <v>       0.14160898       0.85591288       0.50000000 </v>
    <v>       0.28573247       0.85591288       0.50000000 </v>
    <v>       0.42979175       0.85613493       0.50000000 </v>
    <v>       0.57342541       0.85758690       0.50000000 </v>
    <v>       0.71640633       0.86138410       0.50000000 </v>
    <v>       0.85559006       0.85758690       0.50000000 </v>
    <v>       0.04754270       0.09547788       0.50000000 </v>
    <v>       0.18957833       0.09405657       0.50000000 </v>
    <v>       0.33254182       0.09365506       0.50000000 </v>
    <v>       0.47590681       0.09405657       0.50000000 </v>
    <v>       0.61936376       0.09547788       0.50000000 </v>
    <v>       0.76280004       0.09776093       0.50000000 </v>
    <v>       0.90582126       0.09719274       0.50000000 </v>
    <v>       0.04854983       0.23934281       0.50000000 </v>
    <v>       0.19048138       0.23782962       0.50000000 </v>
    <v>       0.33234878       0.23634667       0.50000000 </v>
    <v>       0.47542646       0.23634667       0.50000000 </v>
    <v>       0.61877681       0.23782962       0.50000000 </v>
    <v>       0.76222155       0.23934281       0.50000000 </v>
    <v>       0.90562797       0.23982737       0.50000000 </v>
    <v>       0.04871288       0.38232824       0.50000000 </v>
    <v>       0.19188940       0.38184213       0.50000000 </v>
    <v>       0.33352206       0.38013969       0.50000000 </v>
    <v>       0.47472270       0.37801683       0.50000000 </v>
    <v>       0.61804620       0.38013969       0.50000000 </v>
    <v>       0.76138130       0.38184213       0.50000000 </v>
    <v>       0.90504393       0.38232824       0.50000000 </v>
    <v>       0.04810654       0.52478452       0.50000000 </v>
    <v>       0.19263929       0.52476864       0.50000000 </v>
    <v>       0.33696521       0.52455433       0.50000000 </v>
    <v>       0.47833704       0.52146721       0.50000000 </v>
    <v>       0.61455874       0.52146721       0.50000000 </v>
    <v>       0.75901769       0.52455433       0.50000000 </v>
    <v>       0.90355792       0.52476864       0.50000000 </v>
    <v>       0.04642473       0.66685228       0.50000000 </v>
    <v>       0.19185612       0.66685228       0.50000000 </v>
    <v>       0.33777931       0.66688794       0.50000000 </v>
    <v>       0.48615700       0.66710760       0.50000000 </v>
    <v>       0.75237918       0.66710760       0.50000000 </v>
    <v>       0.90053720       0.66688794       0.50000000 </v>
    <v>       0.04582562       0.80879365       0.50000000 </v>
    <v>       0.19009580       0.80876303       0.50000000 </v>
    <v>       0.33439660       0.80879365       0.50000000 </v>
    <v>       0.47844872       0.80897069       0.50000000 </v>
    <v>       0.62209487       0.81129474       0.50000000 </v>
    <v>       0.76062845       0.81129474       0.50000000 </v>
    <v>       0.90195054       0.80897069       0.50000000 </v>
    <v>       0.04629157       0.95154386       0.50000000 </v>
    <v>       0.18948291       0.95113037       0.50000000 </v>
    <v>       0.33307603       0.95113037       0.50000000 </v>
    <v>       0.47668087       0.95154386       0.50000000 </v>
    <v>       0.62015751       0.95313740       0.50000000 </v>
    <v>       0.76355772       0.95568687       0.50000000 </v>
    <v>       0.90440847       0.95313740       0.50000000 </v>
    <v>       0.56830873       0.56518888       0.50000000 </v>
   </varray>
  </structure>
  <varray name="forces" >
   <v>      -0.03553431      -0.02475669      -0.00000000 </v>
   <v>      -0.02009300      -0.00898283       0.00000000 </v>
   <v>       0.00086347      -0.01195628       0.00000000 </v>
   <v>       0.02158760      -0.00608509       0.00000000 </v>
   <v>       0.02860847      -0.00765153      -0.00000000 </v>
   <v>      -0.07540954       0.13541701       0.00000000 </v>
   <v>       0.04701480      -0.04510516       0.00000000 </v>
   <v>      -0.00344776      -0.01899992       0.00000000 </v>
   <v>      -0.02511750      -0.02377516       0.00000000 </v>
   <v>      -0.00620419      -0.03307859       0.00000000 </v>
   <v>       0.00971363      -0.03329305       0.00000000 </v>
   <v>       0.03437136      -0.02737505      -0.00000000 </v>
   <v>      -0.14541890       0.10512536       0.00000000 </v>
   <v>      -0.04125951       0.02818598       0.00000000 </v>
   <v>      -0.01660844      -0.02735422       0.00000000 </v>
   <v>       0.00512301      -0.04403486       0.00000000 </v>
   <v>      -0.02962559      -0.00278195       0.00000000 </v>
   <v>       0.00188758      -0.09461156       0.00000000 </v>
   <v>       0.03496214      -0.00499929      -0.00000000 </v>
   <v>       0.00821354      -0.04775807       0.00000000 </v>
   <v>      -0.00256636      -0.03818765       0.00000000 </v>
   <v>      -0.00347630       0.00466104       0.00000000 </v>
   <v>      -0.02787792      -0.00179385       0.00000000 </v>
   <v>       0.05706410      -0.13941814       0.00000000 </v>
   <v>      -0.11116115      -0.20113576       0.00000000 </v>
   <v>       0.11398875      -0.20191141       0.00000000 </v>
   <v>      -0.05404106      -0.14123502       0.00000000 </v>
   <v>       0.02570140      -0.00524167       0.00000000 </v>
   <v>       0.01637727       0.02704241      -0.00000000 </v>
   <v>      -0.01838424       0.02778823       0.00000000 </v>
   <v>      -0.08684259       0.12712646      -0.00000000 </v>
   <v>       0.05045139       0.39407915       0.00000000 </v>
   <v>      -0.04899135       0.39373071       0.00000000 </v>
   <v>       0.08689298       0.12579606       0.00000000 </v>
   <v>      -0.00773212       0.02122109       0.00000000 </v>
   <v>      -0.00041317       0.02724598       0.00000000 </v>
   <v>       0.00723076       0.02212419       0.00000000 </v>
   <v>       0.08520551       0.04172528       0.00000000 </v>
   <v>       1.36383522       1.24594334       0.00000000 </v>
   <v>      -1.36363840       1.24655636       0.00000000 </v>
   <v>      -0.08493730       0.04115916       0.00000000 </v>
   <v>      -0.04481048      -0.00833764       0.00000000 </v>
   <v>      -0.01208588      -0.00426901      -0.00000000 </v>
   <v>       0.01220480      -0.00336126      -0.00000000 </v>
   <v>       0.04374973      -0.00587873       0.00000000 </v>
   <v>       0.14919800       0.02920529       0.00000000 </v>
   <v>      -0.00407876      -0.26611463       0.00000000 </v>
   <v>      -0.14783259       0.03375902       0.00000000 </v>
   <v>       0.02290128       0.02960252       0.00000000 </v>
   <v>       0.00888610       0.02256915      -0.00000000 </v>
   <v>      -0.00165492       0.02664774       0.00000000 </v>
   <v>      -0.01406125       0.02079564       0.00000000 </v>
   <v>      -0.04744708       0.01626570       0.00000000 </v>
   <v>       0.27009631      -0.44417811      -0.00000000 </v>
   <v>      -0.01326014       0.00882415       0.00000000 </v>
   <v>       0.01859717       0.03148115       0.00000000 </v>
   <v>      -0.00896732       0.00232562       0.00000000 </v>
   <v>       0.01445133       0.03558810       0.00000000 </v>
   <v>      -0.01850089       0.03585508       0.00000000 </v>
   <v>       0.00188184       0.00459276      -0.00000000 </v>
   <v>      -0.04325167       0.07589652       0.00000000 </v>
   <v>       0.02930550       0.04446672      -0.00000000 </v>
   <v>       0.01524522       0.02814233      -0.00000000 </v>
   <v>       0.04912761       0.05932727       0.00000000 </v>
   <v>      -0.02204608      -0.19957404       0.00000000 </v>
   <v>      -0.00132086       0.11124984       0.00000000 </v>
   <v>       0.01914030      -0.19765014       0.00000000 </v>
   <v>      -0.05175714       0.06576110       0.00000000 </v>
   <v>      -0.00880361       0.03255716       0.00000000 </v>
   <v>       0.00113298       0.01130066       0.00000000 </v>
   <v>       0.02731189      -0.00600949       0.00000000 </v>
   <v>       0.19117336       0.11369192      -0.00000000 </v>
   <v>       1.02221738      -1.56260597       0.00000000 </v>
   <v>      -1.02391886      -1.56186583       0.00000000 </v>
   <v>      -0.19217255       0.11559739      -0.00000000 </v>
   <v>      -0.02620465      -0.00371383       0.00000000 </v>
   <v>       0.00959749      -0.03153471       0.00000000 </v>
   <v>      -0.00896225      -0.03217361      -0.00000000 </v>
   <v>      -0.05736006      -0.06546787       0.00000000 </v>
   <v>      -0.26848197       0.01192583       0.00000000 </v>
   <v>       0.26818289       0.01224935      -0.00000000 </v>
   <v>       0.05753435      -0.06435742       0.00000000 </v>
   <v>       0.03502257      -0.01203601       0.00000000 </v>
   <v>      -0.00014546      -0.01089501      -0.00000000 </v>
   <v>      -0.03498015      -0.01319825       0.00000000 </v>
   <v>      -0.08164257      -0.01179756      -0.00000000 </v>
   <v>      -0.88474780       0.25066885      -0.00000000 </v>
   <v>       0.88391554       0.25044337       0.00000000 </v>
   <v>       0.08275781      -0.01155399      -0.00000000 </v>
   <v>       0.02912921       0.01730602      -0.00000000 </v>
   <v>       0.00871784      -0.00381954      -0.00000000 </v>
   <v>      -0.01048052      -0.00486551       0.00000000 </v>
   <v>      -0.02933246       0.01314211       0.00000000 </v>
   <v>      -0.08697665       0.12934397       0.00000000 </v>
   <v>      -0.02123130       0.05972879      -0.00000000 </v>
   <v>       0.10389735       0.12034473       0.00000000 </v>
   <v>       0.00082782      -0.11880267      -0.00000000 </v>
  </varray>
  <varray name="stress" >
   <v>     -10.57012917      -0.01832264       0.00000000 </v>
   <v>      -0.01832264       3.00378284       0.00000000 </v>
   <v>       0.00000000       0.00000000      -0.42556671 </v>
  </varray>
  <energy>
   <i name="e_fr_energy">   -845.65315689 </i>
   <i name="e_wo_entrp">   -845.65315689 </i>
   <i name="e_0_energy">     -0.00000000 </i>
  </energy>
  <time name="totalsc">  104.15  105.41</time>
  <eigenvalues>
   <array>
    <dimension dim="1">band</dimension>
    <dimension dim="2">kpoint</dimension>
    <dimension dim="3">spin</dimension>
    <field>eigene</field>
    <field>occ</field>
    <set>
     <set comment="spin 1">
      <set comment="kpoint 1">
       <r>  -22.5410    1.0000 </r>
       <r>  -22.0193    1.0000 </r>
       <r>  -21.7716    1.0000 </r>
       <r>  -21.7428    1.0000 </r>
       <r>  -21.6959    1.0000 </r>
       <r>  -21.6551    1.0000 </r>
       <r>  -21.6190    1.0000 </r>
       <r>  -21.2371    1.0000 </r>
       <r>  -21.0695    1.0000 </r>
       <r>  -21.0041    1.0000 </r>
       <r>  -20.9692    1.0000 </r>
       <r>  -20.9254    1.0000 </r>
       <r>  -20.8757    1.0000 </r>
       <r>  -20.7437    1.0000 </r>
       <r>  -20.7038    1.0000 </r>
       <r>  -20.6631    1.0000 </r>
       <r>  -20.5960    1.0000 </r>
       <r>  -20.5684    1.0000 </r>
       <r>  -20.4278    1.0000 </r>
       <r>  -19.9805    1.0000 </r>
       <r>  -19.9246    1.0000 </r>
       <r>  -19.8020    1.0000 </r>
       <r>  -19.7637    1.0000 </r>
       <r>  -19.7365    1.0000 </r>
       <r>  -19.7354    1.0000 </r>
       <r>  -19.7070    1.0000 </r>
       <r>  -19.6974    1.0000 </r>
       <r>  -19.6436    1.0000 </r>
       <r>  -19.6387    1.0000 </r>
       <r>  -19.6310    1.0000 </r>
       <r>  -19.4938    1.0000 </r>
       <r>  -19.4074    1.0000 </r>
       <r>  -19.3626    1.0000 </r>
       <r>  -19.3548    1.0000 </r>
       <r>  -19.2904    1.0000 </r>
       <r>  -19.2405    1.0000 </r>
       <r>  -19.1074    1.0000 </r>
       <r>  -18.9996    1.0000 </r>
       <r>  -18.9304    1.0000 </r>
       <r>  -18.8762    1.0000 </r>
       <r>  -18.8542    1.0000 </r>
       <r>  -18.8364    1.0000 </r>
       <r>  -18.7661    1.0000 </r>
       <r>  -18.7488    1.0000 </r>
       <r>  -18.7272    1.0000 </r>
       <r>  -18.7133    1.0000 </r>
       <r>  -18.6956    1.0000 </r>
       <r>  -18.4494    1.0000 </r>
       <r>  -14.1405    1.0000 </r>
       <r>  -13.1824    1.0000 </r>
       <r>  -13.1563    1.0000 </r>
       <r>  -13.1086    1.0000 </r>
       <r>  -13.1016    1.0000 </r>
       <r>  -13.0777    1.0000 </r>
       <r>  -13.0164    1.0000 </r>
       <r>  -12.9581    1.0000 </r>
       <r>  -12.9513    1.0000 </r>
       <r>  -12.9356    1.0000 </r>
       <r>  -12.8057    1.0000 </r>
       <r>  -12.7706    1.0000 </r>
       <r>  -12.6022    1.0000 </r>
       <r>  -12.5024    1.0000 </r>
       <r>  -12.4848    1.0000 </r>
       <r>  -12.3786    1.0000 </r>
       <r>  -12.3086    1.0000 </r>
       <r>  -12.2984    1.0000 </r>
       <r>  -12.1754    1.0000 </r>
       <r>  -11.9010    1.0000 </r>
       <r>  -11.8834    1.0000 </r>
       <r>  -11.7668    1.0000 </r>
       <r>  -11.7634    1.0000 </r>
       <r>  -11.7533    1.0000 </r>
       <r>  -11.7417    1.0000 </r>
       <r>  -11.6952    1.0000 </r>
       <r>  -11.6572    1.0000 </r>
       <r>  -11.6320    1.0000 </r>
       <r>  -11.5401    1.0000 </r>
       <r>  -11.4217    1.0000 </r>
       <r>  -11.2002    1.0000 </r>
       <r>  -11.1235    1.0000 </r>
       <r>  -11.0848    1.0000 </r>
       <r>  -11.0577    1.0000 </r>
       <r>  -10.9646    1.0000 </r>
       <r>  -10.9131    1.0000 </r>
       <r>  -10.6873    1.0000 </r>
       <r>  -10.4607    1.0000 </r>
       <r>  -10.4321    1.0000 </r>
       <r>  -10.3491    1.0000 </r>
       <r>  -10.2535    1.0000 </r>
       <r>  -10.2067    1.0000 </r>
       <r>   -9.8912    1.0000 </r>
       <r>   -9.7690    1.0000 </r>
       <r>   -9.7651    1.0000 </r>
       <r>   -9.7238    1.0000 </r>
       <r>   -9.6765    1.0000 </r>
       <r>   -9.5844    1.0000 </r>
       <r>   -9.5415    1.0000 </r>
       <r>   -9.4967    1.0000 </r>
       <r>   -9.4645    1.0000 </r>
       <r>   -9.3521    1.0000 </r>
       <r>   -9.3461    1.0000 </r>
       <r>   -9.2895    1.0000 </r>
       <r>   -9.2605    1.0000 </r>
       <r>   -9.2553    1.0000 </r>
       <r>   -9.2520    1.0000 </r>
       <r>   -9.2379    1.0000 </r>
       <r>   -9.2217    1.0000 </r>
       <r>   -9.2213    1.0000 </r>
       <r>   -9.2109    1.0000 </r>
       <r>   -9.2034    1.0000 </r>
       <r>   -9.1979    1.0000 </r>
       <r>   -9.1976    1.0000 </r>
       <r>   -9.1553    1.0000 </r>
       <r>   -9.1327    1.0000 </r>
       <r>   -9.1121    1.0000 </r>
       <r>   -9.1102    1.0000 </r>
       <r>   -9.0990    1.0000 </r>
       <r>   -9.0429    1.0000 </r>
       <r>   -8.9947    1.0000 </r>
       <r>   -8.8456    1.0000 </r>
       <r>   -8.7967    1.0000 </r>
       <r>   -8.6541    1.0000 </r>
       <r>   -8.5077    1.0000 </r>
       <r>   -8.4805    1.0000 </r>
       <r>   -8.4406    1.0000 </r>
       <r>   -8.3280    1.0000 </r>
       <r>   -8.2232    1.0000 </r>
       <r>   -8.2030    1.0000 </r>
       <r>   -8.1976    1.0000 </r>
       <r>   -8.1708    1.0000 </r>
       <r>   -8.1498    1.0000 </r>
       <r>   -8.1217    1.0000 </r>
       <r>   -8.0379    1.0000 </r>
       <r>   -7.9696    1.0000 </r>
       <r>   -7.9515    1.0000 </r>
       <r>   -7.8727    1.0000 </r>
       <r>   -7.8467    1.0000 </r>
       <r>   -7.8438    1.0000 </r>
       <r>   -7.8017    1.0000 </r>
       <r>   -7.7975    1.0000 </r>
       <r>   -7.7952    1.0000 </r>
       <r>   -7.7381    1.0000 </r>
       <r>   -7.7337    1.0000 </r>
       <r>   -7.7105    1.0000 </r>
       <r>   -7.6793    1.0000 </r>
       <r>   -7.6771    1.0000 </r>
       <r>   -7.6679    1.0000 </r>
       <r>   -7.6380    1.0000 </r>
       <r>   -7.6331    1.0000 </r>
       <r>   -7.4414    1.0000 </r>
       <r>   -7.4368    1.0000 </r>
       <r>   -7.4292    1.0000 </r>
       <r>   -7.3809    1.0000 </r>
       <r>   -7.3622    1.0000 </r>
       <r>   -7.2725    1.0000 </r>
       <r>   -6.8315    1.0000 </r>
       <r>   -6.7598    1.0000 </r>
       <r>   -6.6199    1.0000 </r>
       <r>   -6.6066    1.0000 </r>
       <r>   -6.5414    1.0000 </r>
       <r>   -6.5398    1.0000 </r>
       <r>   -6.4999    1.0000 </r>
       <r>   -6.4867    1.0000 </r>
       <r>   -6.4587    1.0000 </r>
       <r>   -6.4565    1.0000 </r>
       <r>   -6.4400    1.0000 </r>
       <r>   -6.4397    1.0000 </r>
       <r>   -6.4103    1.0000 </r>
       <r>   -6.4030    1.0000 </r>
       <r>   -6.3598    1.0000 </r>
       <r>   -6.3466    1.0000 </r>
       <r>   -6.3187    1.0000 </r>
       <r>   -6.1118    1.0000 </r>
       <r>   -5.9735    1.0000 </r>
       <r>   -5.9225    1.0000 </r>
       <r>   -5.8853    1.0000 </r>
       <r>   -5.8792    1.0000 </r>
       <r>   -5.8607    1.0000 </r>
       <r>   -5.7831    1.0000 </r>
       <r>   -5.7795    1.0000 </r>
       <r>   -5.5275    1.0000 </r>
       <r>   -5.2203    1.0000 </r>
       <r>   -5.2001    1.0000 </r>
       <r>   -5.1961    1.0000 </r>
       <r>   -5.1419    1.0000 </r>
       <r>   -5.1329    1.0000 </r>
       <r>   -5.1023    1.0000 </r>
       <r>   -5.0003    1.0000 </r>
       <r>   -4.9435    1.0000 </r>
       <r>   -4.9169    1.0000 </r>
       <r>   -4.9075    1.0000 </r>
       <r>   -4.8976    1.0000 </r>
       <r>   -4.7366    1.0000 </r>
       <r>   -1.3176    1.0000 </r>
       <r>   -1.2043    0.0000 </r>
       <r>    0.0577    0.0000 </r>
       <r>    0.2053    0.0000 </r>
       <r>    0.2403    0.0000 </r>
       <r>    0.2597    0.0000 </r>
       <r>    0.2618    0.0000 </r>
       <r>    0.3040    0.0000 </r>
       <r>    0.3050    0.0000 </r>
       <r>    0.3800    0.0000 </r>
       <r>    0.3939    0.0000 </r>
       <r>    0.4380    0.0000 </r>
       <r>    0.4795    0.0000 </r>
       <r>    0.5263    0.0000 </r>
       <r>    0.6032    0.0000 </r>
       <r>    0.7470    0.0000 </r>
       <r>    0.7487    0.0000 </r>
       <r>    0.7811    0.0000 </r>
       <r>    0.8072    0.0000 </r>
       <r>    0.8130    0.0000 </r>
       <r>    0.8273    0.0000 </r>
       <r>    0.8388    0.0000 </r>
       <r>    0.8579    0.0000 </r>
       <r>    0.8702    0.0000 </r>
       <r>    0.9801    0.0000 </r>
       <r>    1.0189    0.0000 </r>
       <r>    1.0621    0.0000 </r>
       <r>    1.1191    0.0000 </r>
       <r>    1.4953    0.0000 </r>
       <r>    1.6733    0.0000 </r>
       <r>    1.6980    0.0000 </r>
       <r>    1.7068    0.0000 </r>
       <r>    1.7240    0.0000 </r>
       <r>    1.7394    0.0000 </r>
       <r>    1.7440    0.0000 </r>
       <r>    1.8062    0.0000 </r>
       <r>    1.8081    0.0000 </r>
       <r>    1.8477    0.0000 </r>
       <r>    1.8484    0.0000 </r>
       <r>    1.8789    0.0000 </r>
       <r>    1.8806    0.0000 </r>
       <r>    1.9022    0.0000 </r>
       <r>    1.9075    0.0000 </r>
       <r>    1.9295    0.0000 </r>
       <r>    1.9820    0.0000 </r>
       <r>    2.0298    0.0000 </r>
       <r>    2.1051    0.0000 </r>
       <r>    2.1069    0.0000 </r>
       <r>    2.1289    0.0000 </r>
       <r>    2.1350    0.0000 </r>
       <r>    2.1405    0.0000 </r>
      </set>
     </set>
    </set>
   </array>
  </eigenvalues>
  <separator name="orbital magnetization" >
   <v name="MAGDIPOLOUT">      0.00000000      0.00000000      0.00000000</v>
  </separator>
  <dos>
   <i name="efermi">     -1.25220685 </i>
   <total>
    <array>
     <dimension dim="1">gridpoints</dimension>
     <dimension dim="2">spin</dimension>
     <field>energy</field>
     <field>total</field>
     <field>integrated</field>
     <set>
      <set comment="spin 1">
       <r>   -23.7750     0.0000     0.0000 </r>
       <r>   -23.6845     0.0000     0.0000 </r>
       <r>   -23.5940     0.0000     0.0000 </r>
       <r>   -23.5035     0.0000     0.0000 </r>
       <r>   -23.4130     0.0000     0.0000 </r>
       <r>   -23.3225     0.0000     0.0000 </r>
       <r>   -23.2320     0.0000     0.0000 </r>
       <r>   -23.1415     0.0000     0.0000 </r>
       <r>   -23.0510     0.0000     0.0000 </r>
       <r>   -22.9606     0.0000     0.0000 </r>
       <r>   -22.8701     0.0000     0.0000 </r>
       <r>   -22.7796     0.0000     0.0000 </r>
       <r>   -22.6891     0.0000     0.0000 </r>
       <r>   -22.5986     0.0000     0.0000 </r>
       <r>   -22.5081    22.0998     2.0000 </r>
       <r>   -22.4176     0.0000     2.0000 </r>
       <r>   -22.3271     0.0000     2.0000 </r>
       <r>   -22.2366     0.0000     2.0000 </r>
       <r>   -22.1461     0.0000     2.0000 </r>
       <r>   -22.0556     0.0000     2.0000 </r>
       <r>   -21.9651    22.0998     4.0000 </r>
       <r>   -21.8746     0.0000     4.0000 </r>
       <r>   -21.7841     0.8705     4.0788 </r>
       <r>   -21.6936    57.2769     9.2623 </r>
       <r>   -21.6031    43.9350    13.9761 </r>
       <r>   -21.5126     0.0000    14.0000 </r>
       <r>   -21.4221     0.0000    14.0000 </r>
       <r>   -21.3316     0.0000    14.0000 </r>
       <r>   -21.2411     6.3794    14.5773 </r>
       <r>   -21.1506     0.0000    16.0000 </r>
       <r>   -21.0601    20.0637    17.8157 </r>
       <r>   -20.9696    32.7226    20.9613 </r>
       <r>   -20.8791    29.1259    24.6359 </r>
       <r>   -20.7886     0.0000    26.0000 </r>
       <r>   -20.6981    39.6070    29.5844 </r>
       <r>   -20.6076    23.2068    32.1002 </r>
       <r>   -20.5171    43.0926    36.0000 </r>
       <r>   -20.4266    12.5848    37.1389 </r>
       <r>   -20.3361     0.0000    38.0000 </r>
       <r>   -20.2456     0.0000    38.0000 </r>
       <r>   -20.1551     0.0000    38.0000 </r>
       <r>   -20.0646     0.0000    38.0000 </r>
       <r>   -19.9741    18.0266    39.6314 </r>
       <r>   -19.8836    22.0998    42.0000 </r>
       <r>   -19.7931    19.7957    43.7915 </r>
       <r>   -19.7026    87.6093    51.9286 </r>
       <r>   -19.6121    66.2158    59.9924 </r>
       <r>   -19.5216     0.0010    60.0001 </r>
       <r>   -19.4311    22.1078    62.0008 </r>
       <r>   -19.3406    65.7710    67.9530 </r>
       <r>   -19.2501    24.0137    70.1732 </r>
       <r>   -19.1596     0.0000    72.0000 </r>
       <r>   -19.0691    22.0998    74.0000 </r>
       <r>   -18.9786    22.0661    75.9970 </r>
       <r>   -18.8881    23.1086    78.0913 </r>
       <r>   -18.7976    65.2907    84.0000 </r>
       <r>   -18.7071    85.2281    91.7130 </r>
       <r>   -18.6166    20.9660    94.0000 </r>
       <r>   -18.5261     0.0000    94.0000 </r>
       <r>   -18.4356    21.5232    95.9478 </r>
       <r>   -18.3451     0.0000    96.0000 </r>
       <r>   -18.2546     0.0000    96.0000 </r>
       <r>   -18.1641     0.0000    96.0000 </r>
       <r>   -18.0736     0.0000    96.0000 </r>
       <r>   -17.9831     0.0000    96.0000 </r>
       <r>   -17.8926     0.0000    96.0000 </r>
       <r>   -17.8021     0.0000    96.0000 </r>
       <r>   -17.7116     0.0000    96.0000 </r>
       <r>   -17.6211     0.0000    96.0000 </r>
       <r>   -17.5306     0.0000    96.0000 </r>
       <r>   -17.4401     0.0000    96.0000 </r>
       <r>   -17.3496     0.0000    96.0000 </r>
       <r>   -17.2591     0.0000    96.0000 </r>
       <r>   -17.1686     0.0000    96.0000 </r>
       <r>   -17.0781     0.0000    96.0000 </r>
       <r>   -16.9876     0.0000    96.0000 </r>
       <r>   -16.8971     0.0000    96.0000 </r>
       <r>   -16.8066     0.0000    96.0000 </r>
       <r>   -16.7161     0.0000    96.0000 </r>
       <r>   -16.6257     0.0000    96.0000 </r>
       <r>   -16.5352     0.0000    96.0000 </r>
       <r>   -16.4447     0.0000    96.0000 </r>
       <r>   -16.3542     0.0000    96.0000 </r>
       <r>   -16.2637     0.0000    96.0000 </r>
       <r>   -16.1732     0.0000    96.0000 </r>
       <r>   -16.0827     0.0000    96.0000 </r>
       <r>   -15.9922     0.0000    96.0000 </r>
       <r>   -15.9017     0.0000    96.0000 </r>
       <r>   -15.8112     0.0000    96.0000 </r>
       <r>   -15.7207     0.0000    96.0000 </r>
       <r>   -15.6302     0.0000    96.0000 </r>
       <r>   -15.5397     0.0000    96.0000 </r>
       <r>   -15.4492     0.0000    96.0000 </r>
       <r>   -15.3587     0.0000    96.0000 </r>
       <r>   -15.2682     0.0000    96.0000 </r>
       <r>   -15.1777     0.0000    96.0000 </r>
       <r>   -15.0872     0.0000    96.0000 </r>
       <r>   -14.9967     0.0000    96.0000 </r>
       <r>   -14.9062     0.0000    96.0000 </r>
       <r>   -14.8157     0.0000    96.0000 </r>
       <r>   -14.7252     0.0000    96.0000 </r>
       <r>   -14.6347     0.0000    96.0000 </r>
       <r>   -14.5442     0.0000    96.0000 </r>
       <r>   -14.4537     0.0000    96.0000 </r>
       <r>   -14.3632     0.0000    96.0000 </r>
       <r>   -14.2727     0.0000    96.0000 </r>
       <r>   -14.1822     0.0000    96.0000 </r>
       <r>   -14.0917    22.0998    98.0000 </r>
       <r>   -14.0012     0.0000    98.0000 </r>
       <r>   -13.9107     0.0000    98.0000 </r>
       <r>   -13.8202     0.0000    98.0000 </r>
       <r>   -13.7297     0.0000    98.0000 </r>
       <r>   -13.6392     0.0000    98.0000 </r>
       <r>   -13.5487     0.0000    98.0000 </r>
       <r>   -13.4582     0.0000    98.0000 </r>
       <r>   -13.3677     0.0000    98.0000 </r>
       <r>   -13.2772     0.0000    98.0000 </r>
       <r>   -13.1867     5.9476    98.5382 </r>
       <r>   -13.0962    60.5794   105.4824 </r>
       <r>   -13.0057    42.6495   109.8684 </r>
       <r>   -12.9152    66.2559   115.9961 </r>
       <r>   -12.8247     0.0803   116.0073 </r>
       <r>   -12.7342    44.1193   120.0000 </r>
       <r>   -12.6437     0.0000   120.0000 </r>
       <r>   -12.5532    22.0998   122.0000 </r>
       <r>   -12.4627    44.1800   125.9982 </r>
       <r>   -12.3722    18.0660   127.6349 </r>
       <r>   -12.2817    43.9916   131.9812 </r>
       <r>   -12.1912     0.2774   132.0251 </r>
       <r>   -12.1007    21.8224   134.0000 </r>
       <r>   -12.0102     0.0000   134.0000 </r>
       <r>   -11.9197     0.0878   134.0080 </r>
       <r>   -11.8292    44.1117   138.0000 </r>
       <r>   -11.7387    80.5144   145.2864 </r>
       <r>   -11.6482    42.1716   149.8165 </r>
       <r>   -11.5577    22.0018   152.0128 </r>
       <r>   -11.4672    21.9587   154.0000 </r>
       <r>   -11.3767    22.0998   156.0000 </r>
       <r>   -11.2862     0.0000   156.0000 </r>
       <r>   -11.1957    16.2613   157.4716 </r>
       <r>   -11.1052    22.0339   159.9940 </r>
       <r>   -11.0147    44.1565   164.0000 </r>
       <r>   -10.9242    23.3808   166.1159 </r>
       <r>   -10.8337    20.8188   168.0000 </r>
       <r>   -10.7432     0.0000   168.0000 </r>
       <r>   -10.6527    22.0998   170.0000 </r>
       <r>   -10.5622     0.0000   170.0000 </r>
       <r>   -10.4717     1.3068   170.1183 </r>
       <r>   -10.3812    42.8929   174.0000 </r>
       <r>   -10.2908    22.0997   176.0000 </r>
       <r>   -10.2003    40.2332   179.6410 </r>
       <r>   -10.1098     0.0000   180.0000 </r>
       <r>   -10.0193     0.0000   180.0000 </r>
       <r>    -9.9288     0.0000   180.0000 </r>
       <r>    -9.8383    22.0998   182.0000 </r>
       <r>    -9.7478    44.0232   185.9840 </r>
       <r>    -9.6573    44.1197   189.9935 </r>
       <r>    -9.5668    21.9652   191.9878 </r>
       <r>    -9.4763    45.2101   196.0918 </r>
       <r>    -9.3858    21.0425   198.0000 </r>
       <r>    -9.2953    48.7428   202.4112 </r>
       <r>    -9.2048   166.4361   219.0622 </r>
       <r>    -9.1143    59.1218   229.3504 </r>
       <r>    -9.0238    43.7808   235.9932 </r>
       <r>    -8.9333    22.0994   238.0000 </r>
       <r>    -8.8428    14.4372   239.3065 </r>
       <r>    -8.7523    22.0998   242.0000 </r>
       <r>    -8.6618     3.0616   242.2771 </r>
       <r>    -8.5713     0.0000   244.0000 </r>
       <r>    -8.4808    32.8023   246.9686 </r>
       <r>    -8.3903    22.0998   250.0000 </r>
       <r>    -8.2998    22.0990   251.9999 </r>
       <r>    -8.2093    26.7501   254.4208 </r>
       <r>    -8.1188    79.7711   263.3171 </r>
       <r>    -8.0283    20.1681   265.8252 </r>
       <r>    -7.9378    43.6210   269.9476 </r>
       <r>    -7.8473    39.2310   273.5504 </r>
       <r>    -7.7568    66.4018   282.0093 </r>
       <r>    -7.6663   121.3150   292.9881 </r>
       <r>    -7.5758    44.1988   298.0000 </r>
       <r>    -7.4853     0.0000   298.0000 </r>
       <r>    -7.3948    66.8495   304.0498 </r>
       <r>    -7.3043    43.6495   308.0000 </r>
       <r>    -7.2138    22.0997   310.0000 </r>
       <r>    -7.1233     0.0000   310.0000 </r>
       <r>    -7.0328     0.0000   310.0000 </r>
       <r>    -6.9423     0.0000   310.0000 </r>
       <r>    -6.8518     0.0444   310.0040 </r>
       <r>    -6.7613    31.2382   312.8310 </r>
       <r>    -6.6708     0.0000   314.0000 </r>
       <r>    -6.5803    44.1974   317.9998 </r>
       <r>    -6.4898    71.9416   324.5106 </r>
       <r>    -6.3993   124.5969   337.2759 </r>
       <r>    -6.3088    64.5246   343.8394 </r>
       <r>    -6.2183     0.0000   344.0000 </r>
       <r>    -6.1278     0.2603   344.0236 </r>
       <r>    -6.0373    21.8395   346.0000 </r>
       <r>    -5.9468    22.1043   348.0004 </r>
       <r>    -5.8563    82.4239   355.4598 </r>
       <r>    -5.7658    43.4495   359.9321 </r>
       <r>    -5.6753     0.0000   360.0000 </r>
       <r>    -5.5848     0.0000   360.0000 </r>
       <r>    -5.4943    22.0998   362.0000 </r>
       <r>    -5.4038     0.0000   362.0000 </r>
       <r>    -5.3133     0.0000   362.0000 </r>
       <r>    -5.2228     7.9811   362.7223 </r>
       <r>    -5.1323    76.0593   370.8847 </r>
       <r>    -5.0418    22.0996   374.0000 </r>
       <r>    -4.9513    25.0719   376.2690 </r>
       <r>    -4.8608    66.2994   384.0000 </r>
       <r>    -4.7703     0.0000   384.0000 </r>
       <r>    -4.6798    22.0998   386.0000 </r>
       <r>    -4.5893     0.0000   386.0000 </r>
       <r>    -4.4988     0.0000   386.0000 </r>
       <r>    -4.4083     0.0000   386.0000 </r>
       <r>    -4.3178     0.0000   386.0000 </r>
       <r>    -4.2273     0.0000   386.0000 </r>
       <r>    -4.1368     0.0000   386.0000 </r>
       <r>    -4.0464     0.0000   386.0000 </r>
       <r>    -3.9559     0.0000   386.0000 </r>
       <r>    -3.8654     0.0000   386.0000 </r>
       <r>    -3.7749     0.0000   386.0000 </r>
       <r>    -3.6844     0.0000   386.0000 </r>
       <r>    -3.5939     0.0000   386.0000 </r>
       <r>    -3.5034     0.0000   386.0000 </r>
       <r>    -3.4129     0.0000   386.0000 </r>
       <r>    -3.3224     0.0000   386.0000 </r>
       <r>    -3.2319     0.0000   386.0000 </r>
       <r>    -3.1414     0.0000   386.0000 </r>
       <r>    -3.0509     0.0000   386.0000 </r>
       <r>    -2.9604     0.0000   386.0000 </r>
       <r>    -2.8699     0.0000   386.0000 </r>
       <r>    -2.7794     0.0000   386.0000 </r>
       <r>    -2.6889     0.0000   386.0000 </r>
       <r>    -2.5984     0.0000   386.0000 </r>
       <r>    -2.5079     0.0000   386.0000 </r>
       <r>    -2.4174     0.0000   386.0000 </r>
       <r>    -2.3269     0.0000   386.0000 </r>
       <r>    -2.2364     0.0000   386.0000 </r>
       <r>    -2.1459     0.0000   386.0000 </r>
       <r>    -2.0554     0.0000   386.0000 </r>
       <r>    -1.9649     0.0000   386.0000 </r>
       <r>    -1.8744     0.0000   386.0000 </r>
       <r>    -1.7839     0.0000   386.0000 </r>
       <r>    -1.6934     0.0000   386.0000 </r>
       <r>    -1.6029     0.0000   386.0000 </r>
       <r>    -1.5124     0.0000   386.0000 </r>
       <r>    -1.4219     0.0000   386.0000 </r>
       <r>    -1.3314     0.5627   386.0509 </r>
       <r>    -1.2409    21.5371   388.0000 </r>
       <r>    -1.1504    22.0998   390.0000 </r>
       <r>    -1.0599     0.0000   390.0000 </r>
       <r>    -0.9694     0.0000   390.0000 </r>
       <r>    -0.8789     0.0000   390.0000 </r>
       <r>    -0.7884     0.0000   390.0000 </r>
       <r>    -0.6979     0.0000   390.0000 </r>
       <r>    -0.6074     0.0000   390.0000 </r>
       <r>    -0.5169     0.0000   390.0000 </r>
       <r>    -0.4264     0.0000   390.0000 </r>
       <r>    -0.3359     0.0000   390.0000 </r>
       <r>    -0.2454     0.0000   390.0000 </r>
       <r>    -0.1549     0.0000   390.0000 </r>
       <r>    -0.0644     0.0000   390.0000 </r>
       <r>     0.0261     0.0001   390.0000 </r>
       <r>     0.1166    22.0997   392.0000 </r>
       <r>     0.2071    13.2326   393.1975 </r>
       <r>     0.2976    73.5843   400.6593 </r>
       <r>     0.3881    23.8596   406.1593 </r>
       <r>     0.4786    32.0455   410.9001 </r>
       <r>     0.5691    22.0998   414.0000 </r>
       <r>     0.6596    22.0998   416.0000 </r>
       <r>     0.7501    27.5729   418.4953 </r>
       <r>     0.8406   101.0806   429.1477 </r>
       <r>     0.9311    44.0441   434.0000 </r>
       <r>     1.0216    36.3761   437.2920 </r>
       <r>     1.1121    25.6502   440.3213 </r>
       <r>     1.2026     0.0000   442.0000 </r>
       <r>     1.2931     0.0000   442.0000 </r>
       <r>     1.3836     0.0000   442.0000 </r>
       <r>     1.4741     0.0298   442.0027 </r>
       <r>     1.5646    22.0700   444.0000 </r>
       <r>     1.6551     0.1094   444.0099 </r>
       <r>     1.7456   119.1335   454.7913 </r>
       <r>     1.8361    46.2049   460.1815 </r>
       <r>     1.9266   137.9327   472.6643 </r>
       <r>     2.0171    22.9011   476.0725 </r>
       <r>     2.1076    47.1708   480.3414 </r>
       <r>     2.1981    66.2699   488.0000 </r>
       <r>     2.2885     0.0000   488.0000 </r>
       <r>     2.3790     0.0000   488.0000 </r>
       <r>     2.4695     0.0000   488.0000 </r>
       <r>     2.5600     0.0000   488.0000 </r>
       <r>     2.6505     0.0000   488.0000 </r>
       <r>     2.7410     0.0000   488.0000 </r>
       <r>     2.8315     0.0000   488.0000 </r>
       <r>     2.9220     0.0000   488.0000 </r>
       <r>     3.0125     0.0000   488.0000 </r>
       <r>     3.1030     0.0000   488.0000 </r>
       <r>     3.1935     0.0000   488.0000 </r>
       <r>     3.2840     0.0000   488.0000 </r>
       <r>     3.3745     0.0000   488.0000 </r>
      </set>
     </set>
    </array>
   </total>
  </dos>
 </calculation>
 <structure name="finalpos" >
  <crystal>
   <varray name="basis" >
    <v>      17.59966831       0.00000000       0.00000000 </v>
    <v>      -8.79983416      15.24175986       0.00000000 </v>
    <v>       0.00000000       0.00000000      19.92151445 </v>
   </varray>
   <i name="volume">   5343.94461817 </i>
   <varray name="rec_basis" >
    <v>       0.05681925       0.03280461       0.00000000 </v>
    <v>       0.00000000       0.06560922       0.00000000 </v>
    <v>       0.00000000       0.00000000       0.05019699 </v>
   </varray>
  </crystal>
  <varray name="positions" >
   <v>       0.99943010       0.00005992       0.50000000 </v>
   <v>       0.14164706       0.99871895       0.50000000 </v>
   <v>       0.28492260       0.99841663       0.50000000 </v>
   <v>       0.42850047       0.99871895       0.50000000 </v>
   <v>       0.57205839       0.00005992       0.50000000 </v>
   <v>       0.71530655       0.00214292       0.50000000 </v>
   <v>       0.85826494       0.00214292       0.50000000 </v>
   <v>       0.00080792       0.14408264       0.50000000 </v>
   <v>       0.14259355       0.14244783       0.50000000 </v>
   <v>       0.28470221       0.14112972       0.50000000 </v>
   <v>       0.42785608       0.14112972       0.50000000 </v>
   <v>       0.57128286       0.14244783       0.50000000 </v>
   <v>       0.71470329       0.14408264       0.50000000 </v>
   <v>       0.85805263       0.14467669       0.50000000 </v>
   <v>       0.00095476       0.28713011       0.50000000 </v>
   <v>       0.14372552       0.28645370       0.50000000 </v>
   <v>       0.28540977       0.28469374       0.50000000 </v>
   <v>       0.42724431       0.28306005       0.50000000 </v>
   <v>       0.57071254       0.28469374       0.50000000 </v>
   <v>       0.71415674       0.28645370       0.50000000 </v>
   <v>       0.85760392       0.28713011       0.50000000 </v>
   <v>       0.00054479       0.42966101       0.50000000 </v>
   <v>       0.14422690       0.42957551       0.50000000 </v>
   <v>       0.28730213       0.42918005       0.50000000 </v>
   <v>       0.42797654       0.42569726       0.50000000 </v>
   <v>       0.56914930       0.42569726       0.50000000 </v>
   <v>       0.71330650       0.42918005       0.50000000 </v>
   <v>       0.85677719       0.42957551       0.50000000 </v>
   <v>       0.99928255       0.57181462       0.50000000 </v>
   <v>       0.14396064       0.57181462       0.50000000 </v>
   <v>       0.28862787       0.57181625       0.50000000 </v>
   <v>       0.43313209       0.57215564       0.50000000 </v>
   <v>       0.71045212       0.57215564       0.50000000 </v>
   <v>       0.85461695       0.57181625       0.50000000 </v>
   <v>       0.99707234       0.71370518       0.50000000 </v>
   <v>       0.14255519       0.71368182       0.50000000 </v>
   <v>       0.28806142       0.71370518       0.50000000 </v>
   <v>       0.43464191       0.71382540       0.50000000 </v>
   <v>       0.58510826       0.71626937       0.50000000 </v>
   <v>       0.70258968       0.71626937       0.50000000 </v>
   <v>       0.85061206       0.71382540       0.50000000 </v>
   <v>       0.99777175       0.85613493       0.50000000 </v>
   <v>       0.14160898       0.85591288       0.50000000 </v>
   <v>       0.28573247       0.85591288       0.50000000 </v>
   <v>       0.42979175       0.85613493       0.50000000 </v>
   <v>       0.57342541       0.85758690       0.50000000 </v>
   <v>       0.71640633       0.86138410       0.50000000 </v>
   <v>       0.85559006       0.85758690       0.50000000 </v>
   <v>       0.04754270       0.09547788       0.50000000 </v>
   <v>       0.18957833       0.09405657       0.50000000 </v>
   <v>       0.33254182       0.09365506       0.50000000 </v>
   <v>       0.47590681       0.09405657       0.50000000 </v>
   <v>       0.61936376       0.09547788       0.50000000 </v>
   <v>       0.76280004       0.09776093       0.50000000 </v>
   <v>       0.90582126       0.09719274       0.50000000 </v>
   <v>       0.04854983       0.23934281       0.50000000 </v>
   <v>       0.19048138       0.23782962       0.50000000 </v>
   <v>       0.33234878       0.23634667       0.50000000 </v>
   <v>       0.47542646       0.23634667       0.50000000 </v>
   <v>       0.61877681       0.23782962       0.50000000 </v>
   <v>       0.76222155       0.23934281       0.50000000 </v>
   <v>       0.90562797       0.23982737       0.50000000 </v>
   <v>       0.04871288       0.38232824       0.50000000 </v>
   <v>       0.19188940       0.38184213       0.50000000 </v>
   <v>       0.33352206       0.38013969       0.50000000 </v>
   <v>       0.47472270       0.37801683       0.50000000 </v>
   <v>       0.61804620       0.38013969       0.50000000 </v>
   <v>       0.76138130       0.38184213       0.50000000 </v>
   <v>       0.90504393       0.38232824       0.50000000 </v>
   <v>       0.04810654       0.52478452       0.50000000 </v>
   <v>       0.19263929       0.52476864       0.50000000 </v>
   <v>       0.33696521       0.52455433       0.50000000 </v>
   <v>       0.47833704       0.52146721       0.50000000 </v>
   <v>       0.61455874       0.52146721       0.50000000 </v>
   <v>       0.75901769       0.52455433       0.50000000 </v>
   <v>       0.90355792       0.52476864       0.50000000 </v>
   <v>       0.04642473       0.66685228       0.50000000 </v>
   <v>       0.19185612       0.66685228       0.50000000 </v>
   <v>       0.33777931       0.66688794       0.50000000 </v>
   <v>       0.48615700       0.66710760       0.50000000 </v>
   <v>       0.75237918       0.66710760       0.50000000 </v>
   <v>       0.90053720       0.66688794       0.50000000 </v>
   <v>       0.04582562       0.80879365       0.50000000 </v>
   <v>       0.19009580       0.80876303       0.50000000 </v>
   <v>       0.33439660       0.80879365       0.50000000 </v>
   <v>       0.47844872       0.80897069       0.50000000 </v>
   <v>       0.62209487       0.81129474       0.50000000 </v>
   <v>       0.76062845       0.81129474       0.50000000 </v>
   <v>       0.90195054       0.80897069       0.50000000 </v>
   <v>       0.04629157       0.95154386       0.50000000 </v>
   <v>       0.18948291       0.95113037       0.50000000 </v>
   <v>       0.33307603       0.95113037       0.50000000 </v>
   <v>       0.47668087       0.95154386       0.50000000 </v>
   <v>       0.62015751       0.95313740       0.50000000 </v>
   <v>       0.76355772       0.95568687       0.50000000 </v>
   <v>       0.90440847       0.95313740       0.50000000 </v>
   <v>       0.56830873       0.56518888       0.50000000 </v>
  </varray>
 </structure>
</modeling>
