<?xml version="1.0" encoding="ISO-8859-1"?>
<modeling>
 <generator>
  <i name="program" type="string">vasp </i>
  <i name="version" type="string">5.4.4.18Apr17-6-g9f103f2a35  </i>
  <i name="subversion" type="string">(build Oct 18 2020 22:16:12) gamma-only         parallel </i>
  <i name="platform" type="string">UA-vaughan-2020a </i>
  <i name="date" type="string">2023 03 21 </i>
  <i name="time" type="string">17:20:12 </i>
 </generator>
 <incar>
  <i type="string" name="PREC">accurate</i>
  <i type="int" name="IALGO">    38</i>
  <i type="logical" name="ADDGRID"> T  </i>
  <i type="int" name="NELMIN">     5</i>
  <i type="int" name="IBRION">    -1</i>
  <i name="EDIFF">      0.00000001</i>
  <i name="EDIFFG">     -0.00000001</i>
  <i type="int" name="NSW">     0</i>
  <i type="int" name="ISIF">     2</i>
  <i name="ENCUT">    500.00000000</i>
  <i type="logical" name="LREAL"> F  </i>
  <i type="int" name="ISMEAR">     0</i>
  <i name="SIGMA">      0.01000000</i>
  <i type="logical" name="LWAVE"> F  </i>
  <i type="logical" name="LCHARG"> F  </i>
  <v type="int" name="KPOINT_BSE">    -1     0     0     0</v>
 </incar>
 <structure name="primitive_cell" >
  <crystal>
   <varray name="basis" >
    <v>      17.59966831       0.00000000       0.00000000 </v>
    <v>      -8.79983416      15.24175986       0.00000000 </v>
    <v>       0.00000000       0.00000000      19.92151445 </v>
   </varray>
   <i name="volume">   5343.94461817 </i>
   <varray name="rec_basis" >
    <v>       0.05681925       0.03280461       0.00000000 </v>
    <v>       0.00000000       0.06560922       0.00000000 </v>
    <v>       0.00000000       0.00000000       0.05019699 </v>
   </varray>
  </crystal>
  <varray name="positions" >
   <v>      -0.00019371       0.00005992      -0.49962381 </v>
   <v>       0.04629157      -0.04845614      -0.50000000 </v>
   <v>      -0.09559153      -0.04686260      -0.50000000 </v>
   <v>       0.04754270       0.09547788      -0.50000000 </v>
   <v>       0.14164706      -0.00128105      -0.50000000 </v>
   <v>       0.14259355       0.14244783      -0.50000000 </v>
   <v>      -0.14173506       0.00214292      -0.50000000 </v>
   <v>      -0.00222825      -0.14386507      -0.50000000 </v>
   <v>      -0.14440994      -0.14241310      -0.50000000 </v>
   <v>       0.00080792       0.14408264      -0.50000000 </v>
   <v>       0.18957833       0.09405657      -0.50000000 </v>
   <v>      -0.09804946      -0.19102931      -0.50000000 </v>
   <v>      -0.09417874       0.09719274      -0.50000000 </v>
   <v>      -0.23644228      -0.04431313      -0.50000000 </v>
   <v>       0.04582562      -0.19120635      -0.50000000 </v>
   <v>       0.19048138       0.23782962      -0.50000000 </v>
   <v>       0.18948291      -0.04886963      -0.50000000 </v>
   <v>      -0.23937155      -0.18870526      -0.50000000 </v>
   <v>       0.04854983       0.23934281      -0.50000000 </v>
   <v>      -0.28359367      -0.13861590      -0.50000000 </v>
   <v>       0.28470221       0.14112972      -0.50000000 </v>
   <v>       0.14160898      -0.14408712      -0.50000000 </v>
   <v>      -0.14938794      -0.28617460      -0.50000000 </v>
   <v>      -0.14194737       0.14467669      -0.50000000 </v>
   <v>       0.14372552       0.28645370      -0.50000000 </v>
   <v>      -0.00292766      -0.28629482      -0.50000000 </v>
   <v>       0.28540977       0.28469374      -0.50000000 </v>
   <v>      -0.28469345       0.00214292      -0.50000000 </v>
   <v>       0.28492260      -0.00158337      -0.50000000 </v>
   <v>       0.00095476       0.28713011      -0.50000000 </v>
   <v>      -0.29741032      -0.28373063      -0.50000000 </v>
   <v>      -0.09946280      -0.33311206      -0.50000000 </v>
   <v>       0.33234878       0.23634667      -0.50000000 </v>
   <v>       0.33254182       0.09365506      -0.50000000 </v>
   <v>      -0.23719996       0.09719274      -0.50000000 </v>
   <v>      -0.09437203       0.23982737      -0.50000000 </v>
   <v>      -0.24762082      -0.33289240      -0.50000000 </v>
   <v>      -0.37790513      -0.18870526      -0.50000000 </v>
   <v>       0.19009580      -0.19123697      -0.50000000 </v>
   <v>       0.19188940       0.38184213      -0.50000000 </v>
   <v>      -0.37984249      -0.04686260      -0.50000000 </v>
   <v>       0.04642473      -0.33314772      -0.50000000 </v>
   <v>       0.33352206       0.38013969      -0.50000000 </v>
   <v>       0.33307603      -0.04886963      -0.50000000 </v>
   <v>       0.04871288       0.38232824      -0.50000000 </v>
   <v>      -0.41489174      -0.28373063      -0.50000000 </v>
   <v>      -0.42657459      -0.14241310      -0.50000000 </v>
   <v>       0.42724431       0.28306005      -0.50000000 </v>
   <v>      -0.14538305      -0.42818375      -0.50000000 </v>
   <v>       0.42785608       0.14112972      -0.50000000 </v>
   <v>      -0.28954788      -0.42784436      -0.50000000 </v>
   <v>      -0.28529671       0.14408264      -0.50000000 </v>
   <v>       0.14255519      -0.28631818      -0.50000000 </v>
   <v>       0.14422690       0.42957551      -0.50000000 </v>
   <v>       0.28730213       0.42918005      -0.50000000 </v>
   <v>      -0.14239608       0.28713011      -0.50000000 </v>
   <v>       0.28573247      -0.14408712      -0.50000000 </v>
   <v>      -0.24098231      -0.47544567      -0.50000000 </v>
   <v>       0.47542646       0.23634667      -0.50000000 </v>
   <v>      -0.23777845       0.23934281      -0.50000000 </v>
   <v>       0.42797654       0.42569726      -0.50000000 </v>
   <v>      -0.42794161       0.00005992      -0.50000000 </v>
   <v>      -0.00071745      -0.42818538      -0.50000000 </v>
   <v>       0.00054479       0.42966101      -0.50000000 </v>
   <v>       0.42850047      -0.00128105      -0.50000000 </v>
   <v>      -0.43169127      -0.43481112      -0.50000000 </v>
   <v>       0.47472270       0.37801683      -0.50000000 </v>
   <v>      -0.09644208      -0.47523136      -0.50000000 </v>
   <v>      -0.38063624       0.09547788      -0.50000000 </v>
   <v>       0.47590681       0.09405657      -0.50000000 </v>
   <v>      -0.09495607       0.38232824      -0.50000000 </v>
   <v>      -0.38544126      -0.47853279      -0.50000000 </v>
   <v>       0.48615700      -0.33289240      -0.50000000 </v>
   <v>       0.47844872      -0.19102931      -0.50000000 </v>
   <v>       0.19263929      -0.47523136      -0.50000000 </v>
   <v>       0.19185612      -0.33314772      -0.50000000 </v>
   <v>       0.33696521      -0.47544567      -0.50000000 </v>
   <v>       0.33439660      -0.19120635      -0.50000000 </v>
   <v>       0.43464191      -0.28617460      -0.50000000 </v>
   <v>      -0.28669350       0.42918005      -0.50000000 </v>
   <v>      -0.42928746       0.28469374      -0.50000000 </v>
   <v>       0.28862787      -0.42818375      -0.50000000 </v>
   <v>      -0.28584326       0.28645370      -0.50000000 </v>
   <v>       0.28806142      -0.28629482      -0.50000000 </v>
   <v>       0.47668087      -0.04845614      -0.50000000 </v>
   <v>       0.04810654      -0.47521548      -0.50000000 </v>
   <v>       0.47833704      -0.47853279      -0.50000000 </v>
   <v>       0.43313209      -0.42784436      -0.50000000 </v>
   <v>      -0.43085070       0.42569726      -0.50000000 </v>
   <v>       0.42979175      -0.14386507      -0.50000000 </v>
   <v>      -0.14322281       0.42957551      -0.50000000 </v>
   <v>      -0.42871714       0.14244783      -0.50000000 </v>
   <v>       0.14396064      -0.42818538      -0.50000000 </v>
   <v>      -0.23861870       0.38184213      -0.50000000 </v>
   <v>      -0.38195380       0.38013969      -0.50000000 </v>
   <v>      -0.38122319       0.23782962      -0.50000000 </v>
   <v>       0.33777931      -0.33311206      -0.50000000 </v>
  </varray>
 </structure>
 <varray name="primitive_index" >
  <v type="int" >        1 </v>
  <v type="int" >       90 </v>
  <v type="int" >       96 </v>
  <v type="int" >       49 </v>
  <v type="int" >        2 </v>
  <v type="int" >        9 </v>
  <v type="int" >        7 </v>
  <v type="int" >       42 </v>
  <v type="int" >       48 </v>
  <v type="int" >        8 </v>
  <v type="int" >       50 </v>
  <v type="int" >       89 </v>
  <v type="int" >       55 </v>
  <v type="int" >       95 </v>
  <v type="int" >       83 </v>
  <v type="int" >       57 </v>
  <v type="int" >       91 </v>
  <v type="int" >       88 </v>
  <v type="int" >       56 </v>
  <v type="int" >       47 </v>
  <v type="int" >       10 </v>
  <v type="int" >       43 </v>
  <v type="int" >       41 </v>
  <v type="int" >       14 </v>
  <v type="int" >       16 </v>
  <v type="int" >       35 </v>
  <v type="int" >       17 </v>
  <v type="int" >        6 </v>
  <v type="int" >        3 </v>
  <v type="int" >       15 </v>
  <v type="int" >       40 </v>
  <v type="int" >       82 </v>
  <v type="int" >       58 </v>
  <v type="int" >       51 </v>
  <v type="int" >       54 </v>
  <v type="int" >       62 </v>
  <v type="int" >       81 </v>
  <v type="int" >       87 </v>
  <v type="int" >       84 </v>
  <v type="int" >       64 </v>
  <v type="int" >       94 </v>
  <v type="int" >       77 </v>
  <v type="int" >       65 </v>
  <v type="int" >       92 </v>
  <v type="int" >       63 </v>
  <v type="int" >       39 </v>
  <v type="int" >       46 </v>
  <v type="int" >       18 </v>
  <v type="int" >       34 </v>
  <v type="int" >       11 </v>
  <v type="int" >       33 </v>
  <v type="int" >       13 </v>
  <v type="int" >       36 </v>
  <v type="int" >       23 </v>
  <v type="int" >       24 </v>
  <v type="int" >       21 </v>
  <v type="int" >       44 </v>
  <v type="int" >       75 </v>
  <v type="int" >       59 </v>
  <v type="int" >       61 </v>
  <v type="int" >       25 </v>
  <v type="int" >        5 </v>
  <v type="int" >       29 </v>
  <v type="int" >       22 </v>
  <v type="int" >        4 </v>
  <v type="int" >       97 </v>
  <v type="int" >       66 </v>
  <v type="int" >       76 </v>
  <v type="int" >       53 </v>
  <v type="int" >       52 </v>
  <v type="int" >       69 </v>
  <v type="int" >       74 </v>
  <v type="int" >       80 </v>
  <v type="int" >       86 </v>
  <v type="int" >       71 </v>
  <v type="int" >       78 </v>
  <v type="int" >       72 </v>
  <v type="int" >       85 </v>
  <v type="int" >       38 </v>
  <v type="int" >       27 </v>
  <v type="int" >       19 </v>
  <v type="int" >       31 </v>
  <v type="int" >       20 </v>
  <v type="int" >       37 </v>
  <v type="int" >       93 </v>
  <v type="int" >       70 </v>
  <v type="int" >       73 </v>
  <v type="int" >       32 </v>
  <v type="int" >       26 </v>
  <v type="int" >       45 </v>
  <v type="int" >       28 </v>
  <v type="int" >       12 </v>
  <v type="int" >       30 </v>
  <v type="int" >       68 </v>
  <v type="int" >       67 </v>
  <v type="int" >       60 </v>
  <v type="int" >       79 </v>
 </varray>
 <kpoints>
  <generation param="Gamma">
   <v type="int" name="divisions">       1        1        1 </v>
   <v name="usershift">      0.00000000       0.00000000       0.00000000 </v>
   <v name="genvec1">      1.00000000      -0.00000000       0.00000000 </v>
   <v name="genvec2">      0.00000000       1.00000000       0.00000000 </v>
   <v name="genvec3">      0.00000000       0.00000000       1.00000000 </v>
   <v name="shift">      0.00000000       0.00000000       0.00000000 </v>
  </generation>
  <varray name="kpointlist" >
   <v>       0.00000000       0.00000000       0.00000000 </v>
  </varray>
  <varray name="weights" >
   <v>       1.00000000 </v>
  </varray>
 </kpoints>
 <parameters>
  <separator name="general" >
   <i type="string" name="SYSTEM">unknown system</i>
   <i type="logical" name="LCOMPAT"> F  </i>
  </separator>
  <separator name="electronic" >
   <i type="string" name="PREC">accura</i>
   <i name="ENMAX">    500.00000000</i>
   <i name="ENAUG">    644.87300000</i>
   <i name="EDIFF">      0.00000001</i>
   <i type="int" name="IALGO">    38</i>
   <i type="int" name="IWAVPR">    10</i>
   <i type="int" name="NBANDS">   244</i>
   <i name="NELECT">    388.00000000</i>
   <i type="int" name="TURBO">     0</i>
   <i type="int" name="IRESTART">     0</i>
   <i type="int" name="NREBOOT">     0</i>
   <i type="int" name="NMIN">     0</i>
   <i name="EREF">      0.00000000</i>
   <separator name="electronic smearing" >
    <i type="int" name="ISMEAR">     0</i>
    <i name="SIGMA">      0.01000000</i>
    <i name="KSPACING">      0.50000000</i>
    <i type="logical" name="KGAMMA"> T  </i>
   </separator>
   <separator name="electronic projectors" >
    <i type="logical" name="LREAL"> F  </i>
    <v name="ROPT">      0.00000000      0.00000000      0.00000000</v>
    <i type="int" name="LMAXPAW">  -100</i>
    <i type="int" name="LMAXMIX">     2</i>
    <i type="logical" name="NLSPLINE"> F  </i>
   </separator>
   <separator name="electronic startup" >
    <i type="int" name="ISTART">     0</i>
    <i type="int" name="ICHARG">     2</i>
    <i type="int" name="INIWAV">     1</i>
   </separator>
   <separator name="electronic spin" >
    <i type="int" name="ISPIN">     1</i>
    <i type="logical" name="LNONCOLLINEAR"> F  </i>
    <v name="MAGMOM">      1.00000000      1.00000000      1.00000000      1.00000000      1.00000000      1.00000000      1.00000000      1.00000000      1.00000000      1.00000000      1.00000000      1.00000000      1.00000000      1.00000000      1.00000000      1.00000000      1.00000000      1.00000000      1.00000000      1.00000000
      1.00000000      1.00000000      1.00000000      1.00000000      1.00000000      1.00000000      1.00000000      1.00000000      1.00000000      1.00000000      1.00000000      1.00000000      1.00000000      1.00000000      1.00000000      1.00000000      1.00000000      1.00000000      1.00000000      1.00000000
      1.00000000      1.00000000      1.00000000      1.00000000      1.00000000      1.00000000      1.00000000      1.00000000      1.00000000      1.00000000      1.00000000      1.00000000      1.00000000      1.00000000      1.00000000      1.00000000      1.00000000      1.00000000      1.00000000      1.00000000
      1.00000000      1.00000000      1.00000000      1.00000000      1.00000000      1.00000000      1.00000000      1.00000000      1.00000000      1.00000000      1.00000000      1.00000000      1.00000000      1.00000000      1.00000000      1.00000000      1.00000000      1.00000000      1.00000000      1.00000000
      1.00000000      1.00000000      1.00000000      1.00000000      1.00000000      1.00000000      1.00000000      1.00000000      1.00000000      1.00000000      1.00000000      1.00000000      1.00000000      1.00000000      1.00000000      1.00000000      1.00000000</v>
    <i name="NUPDOWN">     -1.00000000</i>
    <i type="logical" name="LSORBIT"> F  </i>
    <v name="SAXIS">      0.00000000      0.00000000      1.00000000</v>
    <i type="logical" name="LSPIRAL"> F  </i>
    <v name="QSPIRAL">      0.00000000      0.00000000      0.00000000</v>
    <i type="logical" name="LZEROZ"> F  </i>
   </separator>
   <separator name="electronic exchange-correlation" >
    <i type="logical" name="LASPH"> F  </i>
    <i type="logical" name="LMETAGGA"> F  </i>
   </separator>
   <separator name="electronic convergence" >
    <i type="int" name="NELM">    60</i>
    <i type="int" name="NELMDL">    -5</i>
    <i type="int" name="NELMIN">     5</i>
    <i name="ENINI">    500.00000000</i>
    <separator name="electronic convergence detail" >
     <i type="logical" name="LDIAG"> T  </i>
     <i type="logical" name="LSUBROT"> F  </i>
     <i name="WEIMIN">      0.00000000</i>
     <i name="EBREAK">      0.00000000</i>
     <i name="DEPER">      0.30000000</i>
     <i type="int" name="NRMM">     4</i>
     <i name="TIME">      0.40000000</i>
    </separator>
   </separator>
   <separator name="electronic mixer" >
    <i name="AMIX">      0.40000000</i>
    <i name="BMIX">      1.00000000</i>
    <i name="AMIN">      0.10000000</i>
    <i name="AMIX_MAG">      1.60000000</i>
    <i name="BMIX_MAG">      1.00000000</i>
    <separator name="electronic mixer details" >
     <i type="int" name="IMIX">     4</i>
     <i type="logical" name="MIXFIRST"> F  </i>
     <i type="int" name="MAXMIX">   -45</i>
     <i name="WC">    100.00000000</i>
     <i type="int" name="INIMIX">     1</i>
     <i type="int" name="MIXPRE">     1</i>
     <i type="int" name="MREMOVE">     5</i>
    </separator>
   </separator>
   <separator name="electronic dipolcorrection" >
    <i type="logical" name="LDIPOL"> F  </i>
    <i type="logical" name="LMONO"> F  </i>
    <i type="int" name="IDIPOL">     0</i>
    <i name="EPSILON">      1.00000000</i>
    <v name="DIPOL">   -100.00000000   -100.00000000   -100.00000000</v>
    <i name="EFIELD">      0.00000000</i>
   </separator>
  </separator>
  <separator name="grids" >
   <i type="int" name="NGX">   128</i>
   <i type="int" name="NGY">   128</i>
   <i type="int" name="NGZ">   150</i>
   <i type="int" name="NGXF">   256</i>
   <i type="int" name="NGYF">   256</i>
   <i type="int" name="NGZF">   300</i>
   <i type="logical" name="ADDGRID"> T  </i>
  </separator>
  <separator name="ionic" >
   <i type="int" name="NSW">     0</i>
   <i type="int" name="IBRION">    -1</i>
   <i type="int" name="MDALGO">     0</i>
   <i type="int" name="ISIF">     2</i>
   <i name="PSTRESS">      0.00000000</i>
   <i name="EDIFFG">     -0.00000001</i>
   <i type="int" name="NFREE">     0</i>
   <i name="POTIM">      0.50000000</i>
   <i name="SMASS">     -3.00000000</i>
   <i name="SCALEE">      1.00000000</i>
  </separator>
  <separator name="ionic md" >
   <i name="TEBEG">      0.00010000</i>
   <i name="TEEND">      0.00010000</i>
   <i type="int" name="NBLOCK">     1</i>
   <i type="int" name="KBLOCK">     1</i>
   <i type="int" name="NPACO">   256</i>
   <i name="APACO">     16.00000000</i>
  </separator>
  <separator name="symmetry" >
   <i type="int" name="ISYM">     2</i>
   <i name="SYMPREC">      0.00001000</i>
  </separator>
  <separator name="dos" >
   <i type="int" name="LORBIT">     0</i>
   <v name="RWIGS">     -1.00000000     -1.00000000     -1.00000000</v>
   <i type="int" name="NEDOS">   301</i>
   <i name="EMIN">     10.00000000</i>
   <i name="EMAX">    -10.00000000</i>
   <i name="EFERMI">      0.00000000</i>
  </separator>
  <separator name="writing" >
   <i type="int" name="NWRITE">     2</i>
   <i type="logical" name="LWAVE"> F  </i>
   <i type="logical" name="LDOWNSAMPLE"> F  </i>
   <i type="logical" name="LCHARG"> F  </i>
   <i type="logical" name="LPARD"> F  </i>
   <i type="logical" name="LVTOT"> F  </i>
   <i type="logical" name="LVHAR"> F  </i>
   <i type="logical" name="LELF"> F  </i>
   <i type="logical" name="LOPTICS"> F  </i>
   <v name="STM">      0.00000000      0.00000000      0.00000000      0.00000000      0.00000000      0.00000000      0.00000000</v>
  </separator>
  <separator name="performance" >
   <i type="int" name="NPAR">     4</i>
   <i type="int" name="NSIM">     4</i>
   <i type="int" name="NBLK">    -1</i>
   <i type="logical" name="LPLANE"> T  </i>
   <i type="logical" name="LSCALAPACK"> T  </i>
   <i type="logical" name="LSCAAWARE"> F  </i>
   <i type="logical" name="LSCALU"> F  </i>
   <i type="logical" name="LASYNC"> F  </i>
   <i type="logical" name="LORBITALREAL"> F  </i>
  </separator>
  <separator name="miscellaneous" >
   <i type="int" name="IDIOT">     3</i>
   <i type="int" name="ISPECIAL">     0</i>
   <i type="logical" name="LMUSIC"> F  </i>
   <v name="POMASS">     10.81100000     14.00100000     12.01100000</v>
   <v name="DARWINR">      0.00000000      0.00000000      0.00000000</v>
   <v name="DARWINV">      1.00000000      1.00000000      1.00000000</v>
   <i type="logical" name="LCORR"> T  </i>
  </separator>
  <i type="logical" name="GGA_COMPAT"> T  </i>
  <i type="logical" name="LBERRY"> F  </i>
  <i type="int" name="ICORELEVEL">     0</i>
  <i type="logical" name="LDAU"> F  </i>
  <i type="int" name="I_CONSTRAINED_M">     0</i>
  <separator name="electronic exchange-correlation" >
   <i type="string" name="GGA">--</i>
   <i type="int" name="VOSKOWN">     0</i>
   <i type="logical" name="LHFCALC"> F  </i>
   <i type="string" name="PRECFOCK"></i>
   <i type="logical" name="LSYMGRAD"> F  </i>
   <i type="logical" name="LHFONE"> F  </i>
   <i type="logical" name="LRHFCALC"> F  </i>
   <i type="logical" name="LTHOMAS"> F  </i>
   <i type="logical" name="LMODELHF"> F  </i>
   <i name="ENCUT4O">     -1.00000000</i>
   <i type="int" name="EXXOEP">     0</i>
   <i type="int" name="FOURORBIT">     0</i>
   <i name="AEXX">      0.00000000</i>
   <i name="HFALPHA">      0.00000000</i>
   <i name="MCALPHA">      0.00000000</i>
   <i name="ALDAX">      1.00000000</i>
   <i name="AGGAX">      1.00000000</i>
   <i name="ALDAC">      1.00000000</i>
   <i name="AGGAC">      1.00000000</i>
   <i type="int" name="NKREDX">     1</i>
   <i type="int" name="NKREDY">     1</i>
   <i type="int" name="NKREDZ">     1</i>
   <i type="logical" name="SHIFTRED"> F  </i>
   <i type="logical" name="ODDONLY"> F  </i>
   <i type="logical" name="EVENONLY"> F  </i>
   <i type="int" name="LMAXFOCK">     0</i>
   <i type="int" name="NMAXFOCKAE">     0</i>
   <i type="logical" name="LFOCKAEDFT"> F  </i>
   <i name="HFSCREEN">      0.00000000</i>
   <i name="HFSCREENC">      0.00000000</i>
   <i type="int" name="NBANDSGWLOW">     0</i>
  </separator>
  <separator name="vdW DFT" >
   <i type="logical" name="LUSE_VDW"> F  </i>
   <i name="Zab_VDW">     -0.84910000</i>
   <i name="PARAM1">      0.12340000</i>
   <i name="PARAM2">      1.00000000</i>
   <i name="PARAM3">      0.00000000</i>
  </separator>
  <separator name="model GW" >
   <i type="int" name="MODEL_GW">     0</i>
   <i name="MODEL_EPS0">     33.05532754</i>
   <i name="MODEL_ALPHA">      1.00000000</i>
  </separator>
  <separator name="linear response parameters" >
   <i type="logical" name="LEPSILON"> F  </i>
   <i type="logical" name="LRPA"> F  </i>
   <i type="logical" name="LNABLA"> F  </i>
   <i type="logical" name="LVEL"> F  </i>
   <i type="int" name="KINTER">     0</i>
   <i name="CSHIFT">      0.10000000</i>
   <i name="OMEGAMAX">     -1.00000000</i>
   <i name="DEG_THRESHOLD">      0.00200000</i>
   <i name="RTIME">     -0.10000000</i>
   <i name="WPLASMAI">      0.00000000</i>
   <v name="DFIELD">      0.00000000      0.00000000      0.00000000</v>
   <v name="WPLASMA">      0.00000000      0.00000000      0.00000000      0.00000000      0.00000000      0.00000000      0.00000000      0.00000000      0.00000000</v>
  </separator>
  <separator name="orbital magnetization" >
   <i type="logical" name="NUCIND"> F  </i>
   <v name="MAGPOS">      0.00000000      0.00000000      0.00000000</v>
   <i type="logical" name="LNICSALL"> T  </i>
   <i type="logical" name="ORBITALMAG"> F  </i>
   <i type="logical" name="LMAGBLOCH"> F  </i>
   <i type="logical" name="LCHIMAG"> F  </i>
   <i type="logical" name="LGAUGE"> T  </i>
   <i type="int" name="MAGATOM">     0</i>
   <v name="MAGDIPOL">      0.00000000      0.00000000      0.00000000</v>
   <v name="AVECCONST">      0.00000000      0.00000000      0.00000000</v>
  </separator>
  <separator name="response functions" >
   <i type="logical" name="LADDER"> F  </i>
   <i type="logical" name="LRPAFORCE"> F  </i>
   <i type="logical" name="LFXC"> F  </i>
   <i type="logical" name="LHARTREE"> T  </i>
   <i type="int" name="IBSE">     0</i>
   <v type="int" name="KPOINT">    -1     0     0     0</v>
   <i type="logical" name="LTCTE"> F  </i>
   <i type="logical" name="LTETE"> F  </i>
   <i type="logical" name="LTRIPLET"> F  </i>
   <i type="logical" name="LFXCEPS"> F  </i>
   <i type="logical" name="LFXHEG"> F  </i>
   <i type="int" name="NATURALO">     2</i>
   <i type="logical" name="L2ORDER"> F  </i>
   <i type="logical" name="LMP2LT"> F  </i>
   <i type="logical" name="LUSEW"> F  </i>
   <i name="ENCUTGW">     -2.00000000</i>
   <i name="ENCUTGWSOFT">     -2.00000000</i>
   <i name="ENCUTLF">     -1.00000000</i>
   <i type="int" name="LMAXMP2">    -1</i>
   <i name="SCISSOR">      0.00000000</i>
   <i type="int" name="NOMEGA">     0</i>
   <i type="int" name="NOMEGAR">     0</i>
   <i type="int" name="NBANDSGW">    -1</i>
   <i type="int" name="NBANDSO">    -1</i>
   <i type="int" name="NBANDSV">    -1</i>
   <i type="int" name="NELM">     1</i>
   <i type="int" name="NELMHF">     1</i>
   <i type="int" name="DIM">     3</i>
   <i type="int" name="ANTIRES">     0</i>
   <i name="OMEGAMAX">    -30.00000000</i>
   <i name="OMEGAMIN">    -30.00000000</i>
   <i name="OMEGATL">   -200.00000000</i>
   <i type="int" name="OMEGAGRID">   140</i>
   <i name="CSHIFT">     -0.10000000</i>
   <i type="logical" name="SELFENERGY"> F  </i>
   <i type="logical" name="LSPECTRAL"> F  </i>
   <i type="logical" name="LSPECTRALGW"> F  </i>
   <i type="logical" name="LSINGLES"> F  </i>
   <i type="logical" name="LFERMIGW"> F  </i>
   <i type="logical" name="ODDONLYGW"> F  </i>
   <i type="logical" name="EVENONLYGW"> F  </i>
   <i type="int" name="NKREDLFX">     1</i>
   <i type="int" name="NKREDLFY">     1</i>
   <i type="int" name="NKREDLFZ">     1</i>
   <i type="int" name="MAXMEM">  2800</i>
   <i type="int" name="TELESCOPE">     0</i>
   <i type="int" name="TAUPAR">     1</i>
   <i type="int" name="OMEGAPAR">    -1</i>
   <i name="LAMBDA">      1.00000000</i>
  </separator>
  <separator name="External order field" >
   <i name="OFIELD_KAPPA">      0.00000000</i>
   <v name="OFIELD_K">      0.00000000      0.00000000      0.00000000</v>
   <i name="OFIELD_Q6_NEAR">      0.00000000</i>
   <i name="OFIELD_Q6_FAR">      0.00000000</i>
   <i name="OFIELD_A">      0.00000000</i>
  </separator>
 </parameters>
 <atominfo>
  <atoms>      97 </atoms>
  <types>       3 </types>
  <array name="atoms" >
   <dimension dim="1">ion</dimension>
   <field type="string">element</field>
   <field type="int">atomtype</field>
   <set>
    <rc><c>B </c><c>   1</c></rc>
    <rc><c>B </c><c>   1</c></rc>
    <rc><c>B </c><c>   1</c></rc>
    <rc><c>B </c><c>   1</c></rc>
    <rc><c>B </c><c>   1</c></rc>
    <rc><c>B </c><c>   1</c></rc>
    <rc><c>B </c><c>   1</c></rc>
    <rc><c>B </c><c>   1</c></rc>
    <rc><c>B </c><c>   1</c></rc>
    <rc><c>B </c><c>   1</c></rc>
    <rc><c>B </c><c>   1</c></rc>
    <rc><c>B </c><c>   1</c></rc>
    <rc><c>B </c><c>   1</c></rc>
    <rc><c>B </c><c>   1</c></rc>
    <rc><c>B </c><c>   1</c></rc>
    <rc><c>B </c><c>   1</c></rc>
    <rc><c>B </c><c>   1</c></rc>
    <rc><c>B </c><c>   1</c></rc>
    <rc><c>B </c><c>   1</c></rc>
    <rc><c>B </c><c>   1</c></rc>
    <rc><c>B </c><c>   1</c></rc>
    <rc><c>B </c><c>   1</c></rc>
    <rc><c>B </c><c>   1</c></rc>
    <rc><c>B </c><c>   1</c></rc>
    <rc><c>B </c><c>   1</c></rc>
    <rc><c>B </c><c>   1</c></rc>
    <rc><c>B </c><c>   1</c></rc>
    <rc><c>B </c><c>   1</c></rc>
    <rc><c>B </c><c>   1</c></rc>
    <rc><c>B </c><c>   1</c></rc>
    <rc><c>B </c><c>   1</c></rc>
    <rc><c>B </c><c>   1</c></rc>
    <rc><c>B </c><c>   1</c></rc>
    <rc><c>B </c><c>   1</c></rc>
    <rc><c>B </c><c>   1</c></rc>
    <rc><c>B </c><c>   1</c></rc>
    <rc><c>B </c><c>   1</c></rc>
    <rc><c>B </c><c>   1</c></rc>
    <rc><c>B </c><c>   1</c></rc>
    <rc><c>B </c><c>   1</c></rc>
    <rc><c>B </c><c>   1</c></rc>
    <rc><c>B </c><c>   1</c></rc>
    <rc><c>B </c><c>   1</c></rc>
    <rc><c>B </c><c>   1</c></rc>
    <rc><c>B </c><c>   1</c></rc>
    <rc><c>B </c><c>   1</c></rc>
    <rc><c>B </c><c>   1</c></rc>
    <rc><c>B </c><c>   1</c></rc>
    <rc><c>N </c><c>   2</c></rc>
    <rc><c>N </c><c>   2</c></rc>
    <rc><c>N </c><c>   2</c></rc>
    <rc><c>N </c><c>   2</c></rc>
    <rc><c>N </c><c>   2</c></rc>
    <rc><c>N </c><c>   2</c></rc>
    <rc><c>N </c><c>   2</c></rc>
    <rc><c>N </c><c>   2</c></rc>
    <rc><c>N </c><c>   2</c></rc>
    <rc><c>N </c><c>   2</c></rc>
    <rc><c>N </c><c>   2</c></rc>
    <rc><c>N </c><c>   2</c></rc>
    <rc><c>N </c><c>   2</c></rc>
    <rc><c>N </c><c>   2</c></rc>
    <rc><c>N </c><c>   2</c></rc>
    <rc><c>N </c><c>   2</c></rc>
    <rc><c>N </c><c>   2</c></rc>
    <rc><c>N </c><c>   2</c></rc>
    <rc><c>N </c><c>   2</c></rc>
    <rc><c>N </c><c>   2</c></rc>
    <rc><c>N </c><c>   2</c></rc>
    <rc><c>N </c><c>   2</c></rc>
    <rc><c>N </c><c>   2</c></rc>
    <rc><c>N </c><c>   2</c></rc>
    <rc><c>N </c><c>   2</c></rc>
    <rc><c>N </c><c>   2</c></rc>
    <rc><c>N </c><c>   2</c></rc>
    <rc><c>N </c><c>   2</c></rc>
    <rc><c>N </c><c>   2</c></rc>
    <rc><c>N </c><c>   2</c></rc>
    <rc><c>N </c><c>   2</c></rc>
    <rc><c>N </c><c>   2</c></rc>
    <rc><c>N </c><c>   2</c></rc>
    <rc><c>N </c><c>   2</c></rc>
    <rc><c>N </c><c>   2</c></rc>
    <rc><c>N </c><c>   2</c></rc>
    <rc><c>N </c><c>   2</c></rc>
    <rc><c>N </c><c>   2</c></rc>
    <rc><c>N </c><c>   2</c></rc>
    <rc><c>N </c><c>   2</c></rc>
    <rc><c>N </c><c>   2</c></rc>
    <rc><c>N </c><c>   2</c></rc>
    <rc><c>N </c><c>   2</c></rc>
    <rc><c>N </c><c>   2</c></rc>
    <rc><c>N </c><c>   2</c></rc>
    <rc><c>N </c><c>   2</c></rc>
    <rc><c>N </c><c>   2</c></rc>
    <rc><c>N </c><c>   2</c></rc>
    <rc><c>C </c><c>   3</c></rc>
   </set>
  </array>
  <array name="atomtypes" >
   <dimension dim="1">type</dimension>
   <field type="int">atomspertype</field>
   <field type="string">element</field>
   <field>mass</field>
   <field>valence</field>
   <field type="string">pseudopotential</field>
   <set>
    <rc><c>  48</c><c>B </c><c>     10.81100000</c><c>      3.00000000</c><c>  PAW_PBE B 06Sep2000                   </c></rc>
    <rc><c>  48</c><c>N </c><c>     14.00100000</c><c>      5.00000000</c><c>  PAW_PBE N 08Apr2002                   </c></rc>
    <rc><c>   1</c><c>C </c><c>     12.01100000</c><c>      4.00000000</c><c>  PAW_PBE C 08Apr2002                   </c></rc>
   </set>
  </array>
 </atominfo>
 <structure name="initialpos" >
  <crystal>
   <varray name="basis" >
    <v>      17.59966831       0.00000000       0.00000000 </v>
    <v>      -8.79983416      15.24175986       0.00000000 </v>
    <v>       0.00000000       0.00000000      19.92151445 </v>
   </varray>
   <i name="volume">   5343.94461817 </i>
   <varray name="rec_basis" >
    <v>       0.05681925       0.03280461       0.00000000 </v>
    <v>       0.00000000       0.06560922       0.00000000 </v>
    <v>       0.00000000       0.00000000       0.05019699 </v>
   </varray>
  </crystal>
  <varray name="positions" >
   <v>       0.99980629       0.00005992       0.50037619 </v>
   <v>       0.14164706       0.99871895       0.50000000 </v>
   <v>       0.28492260       0.99841663       0.50000000 </v>
   <v>       0.42850047       0.99871895       0.50000000 </v>
   <v>       0.57205839       0.00005992       0.50000000 </v>
   <v>       0.71530655       0.00214292       0.50000000 </v>
   <v>       0.85826494       0.00214292       0.50000000 </v>
   <v>       0.00080792       0.14408264       0.50000000 </v>
   <v>       0.14259355       0.14244783       0.50000000 </v>
   <v>       0.28470221       0.14112972       0.50000000 </v>
   <v>       0.42785608       0.14112972       0.50000000 </v>
   <v>       0.57128286       0.14244783       0.50000000 </v>
   <v>       0.71470329       0.14408264       0.50000000 </v>
   <v>       0.85805263       0.14467669       0.50000000 </v>
   <v>       0.00095476       0.28713011       0.50000000 </v>
   <v>       0.14372552       0.28645370       0.50000000 </v>
   <v>       0.28540977       0.28469374       0.50000000 </v>
   <v>       0.42724431       0.28306005       0.50000000 </v>
   <v>       0.57071254       0.28469374       0.50000000 </v>
   <v>       0.71415674       0.28645370       0.50000000 </v>
   <v>       0.85760392       0.28713011       0.50000000 </v>
   <v>       0.00054479       0.42966101       0.50000000 </v>
   <v>       0.14422690       0.42957551       0.50000000 </v>
   <v>       0.28730213       0.42918005       0.50000000 </v>
   <v>       0.42797654       0.42569726       0.50000000 </v>
   <v>       0.56914930       0.42569726       0.50000000 </v>
   <v>       0.71330650       0.42918005       0.50000000 </v>
   <v>       0.85677719       0.42957551       0.50000000 </v>
   <v>       0.99928255       0.57181462       0.50000000 </v>
   <v>       0.14396064       0.57181462       0.50000000 </v>
   <v>       0.28862787       0.57181625       0.50000000 </v>
   <v>       0.43313209       0.57215564       0.50000000 </v>
   <v>       0.71045212       0.57215564       0.50000000 </v>
   <v>       0.85461695       0.57181625       0.50000000 </v>
   <v>       0.99707234       0.71370518       0.50000000 </v>
   <v>       0.14255519       0.71368182       0.50000000 </v>
   <v>       0.28806142       0.71370518       0.50000000 </v>
   <v>       0.43464191       0.71382540       0.50000000 </v>
   <v>       0.58510826       0.71626937       0.50000000 </v>
   <v>       0.70258968       0.71626937       0.50000000 </v>
   <v>       0.85061206       0.71382540       0.50000000 </v>
   <v>       0.99777175       0.85613493       0.50000000 </v>
   <v>       0.14160898       0.85591288       0.50000000 </v>
   <v>       0.28573247       0.85591288       0.50000000 </v>
   <v>       0.42979175       0.85613493       0.50000000 </v>
   <v>       0.57342541       0.85758690       0.50000000 </v>
   <v>       0.71640633       0.86138410       0.50000000 </v>
   <v>       0.85559006       0.85758690       0.50000000 </v>
   <v>       0.04754270       0.09547788       0.50000000 </v>
   <v>       0.18957833       0.09405657       0.50000000 </v>
   <v>       0.33254182       0.09365506       0.50000000 </v>
   <v>       0.47590681       0.09405657       0.50000000 </v>
   <v>       0.61936376       0.09547788       0.50000000 </v>
   <v>       0.76280004       0.09719274       0.50000000 </v>
   <v>       0.90582126       0.09719274       0.50000000 </v>
   <v>       0.04854983       0.23934281       0.50000000 </v>
   <v>       0.19048138       0.23782962       0.50000000 </v>
   <v>       0.33234878       0.23634667       0.50000000 </v>
   <v>       0.47542646       0.23634667       0.50000000 </v>
   <v>       0.61877681       0.23782962       0.50000000 </v>
   <v>       0.76222155       0.23934281       0.50000000 </v>
   <v>       0.90562797       0.23982737       0.50000000 </v>
   <v>       0.04871288       0.38232824       0.50000000 </v>
   <v>       0.19188940       0.38184213       0.50000000 </v>
   <v>       0.33352206       0.38013969       0.50000000 </v>
   <v>       0.47472270       0.37801683       0.50000000 </v>
   <v>       0.61804620       0.38013969       0.50000000 </v>
   <v>       0.76138130       0.38184213       0.50000000 </v>
   <v>       0.90504393       0.38232824       0.50000000 </v>
   <v>       0.04810654       0.52478452       0.50000000 </v>
   <v>       0.19263929       0.52476864       0.50000000 </v>
   <v>       0.33696521       0.52455433       0.50000000 </v>
   <v>       0.47833704       0.52146721       0.50000000 </v>
   <v>       0.61455874       0.52146721       0.50000000 </v>
   <v>       0.75901769       0.52455433       0.50000000 </v>
   <v>       0.90355792       0.52476864       0.50000000 </v>
   <v>       0.04642473       0.66685228       0.50000000 </v>
   <v>       0.19185612       0.66685228       0.50000000 </v>
   <v>       0.33777931       0.66688794       0.50000000 </v>
   <v>       0.48615700       0.66710760       0.50000000 </v>
   <v>       0.75237918       0.66710760       0.50000000 </v>
   <v>       0.90053720       0.66688794       0.50000000 </v>
   <v>       0.04582562       0.80879365       0.50000000 </v>
   <v>       0.19009580       0.80876303       0.50000000 </v>
   <v>       0.33439660       0.80879365       0.50000000 </v>
   <v>       0.47844872       0.80897069       0.50000000 </v>
   <v>       0.62209487       0.81129474       0.50000000 </v>
   <v>       0.76062845       0.81129474       0.50000000 </v>
   <v>       0.90195054       0.80897069       0.50000000 </v>
   <v>       0.04629157       0.95154386       0.50000000 </v>
   <v>       0.18948291       0.95113037       0.50000000 </v>
   <v>       0.33307603       0.95113037       0.50000000 </v>
   <v>       0.47668087       0.95154386       0.50000000 </v>
   <v>       0.62015751       0.95313740       0.50000000 </v>
   <v>       0.76355772       0.95568687       0.50000000 </v>
   <v>       0.90440847       0.95313740       0.50000000 </v>
   <v>       0.56830873       0.56518888       0.50000000 </v>
  </varray>
 </structure>
 <calculation>
  <scstep>
   <time name="dav">    2.38    2.41</time>
   <time name="total">    2.75    2.86</time>
   <energy>
    <i name="alphaZ">    156.50993408 </i>
    <i name="ewald">  58206.76597993 </i>
    <i name="hartreedc"> -70374.19633482 </i>
    <i name="XCdc">   1302.10853182 </i>
    <i name="pawpsdc">  12033.28670802 </i>
    <i name="pawaedc"> -12049.96799276 </i>
    <i name="eentropy">     -0.00000000 </i>
    <i name="bandstr">   -904.55495795 </i>
    <i name="atom">  16260.93880140 </i>
    <i name="e_fr_energy">   4630.89066972 </i>
    <i name="e_wo_entrp">   4630.89066972 </i>
    <i name="e_0_energy">   4630.89066972 </i>
   </energy>
  </scstep>
  <scstep>
   <time name="dav">    2.99    3.04</time>
   <time name="total">    2.99    3.04</time>
   <energy>
    <i name="e_fr_energy">    216.80732148 </i>
    <i name="e_wo_entrp">    216.80732148 </i>
    <i name="e_0_energy">    216.80732148 </i>
   </energy>
  </scstep>
  <scstep>
   <time name="dav">    2.48    2.51</time>
   <time name="total">    2.48    2.51</time>
   <energy>
    <i name="e_fr_energy">   -867.45041953 </i>
    <i name="e_wo_entrp">   -867.45041953 </i>
    <i name="e_0_energy">   -867.45041953 </i>
   </energy>
  </scstep>
  <scstep>
   <time name="dav">    2.45    2.48</time>
   <time name="total">    2.45    2.48</time>
   <energy>
    <i name="e_fr_energy">   -934.17352027 </i>
    <i name="e_wo_entrp">   -934.17352027 </i>
    <i name="e_0_energy">   -934.17352027 </i>
   </energy>
  </scstep>
  <scstep>
   <time name="dav">    2.51    2.55</time>
   <time name="total">    2.76    2.80</time>
   <energy>
    <i name="e_fr_energy">   -935.77511889 </i>
    <i name="e_wo_entrp">   -935.77511889 </i>
    <i name="e_0_energy">   -935.77511889 </i>
   </energy>
  </scstep>
  <scstep>
   <time name="dav">    2.33    2.35</time>
   <time name="total">    2.94    2.97</time>
   <energy>
    <i name="e_fr_energy">   -858.73179757 </i>
    <i name="e_wo_entrp">   -858.73179757 </i>
    <i name="e_0_energy">   -858.73179757 </i>
   </energy>
  </scstep>
  <scstep>
   <time name="dav">    2.35    2.37</time>
   <time name="total">    2.96    3.00</time>
   <energy>
    <i name="e_fr_energy">   -850.18947787 </i>
    <i name="e_wo_entrp">   -850.18947787 </i>
    <i name="e_0_energy">   -850.18947787 </i>
   </energy>
  </scstep>
  <scstep>
   <time name="dav">    2.28    2.30</time>
   <time name="total">    2.89    2.93</time>
   <energy>
    <i name="e_fr_energy">   -845.92687058 </i>
    <i name="e_wo_entrp">   -845.92686958 </i>
    <i name="e_0_energy">   -845.92687008 </i>
   </energy>
  </scstep>
  <scstep>
   <time name="dav">    2.30    2.32</time>
   <time name="total">    2.91    2.96</time>
   <energy>
    <i name="e_fr_energy">   -845.80138050 </i>
    <i name="e_wo_entrp">   -845.80138050 </i>
    <i name="e_0_energy">   -845.80138050 </i>
   </energy>
  </scstep>
  <scstep>
   <time name="dav">    2.38    2.40</time>
   <time name="total">    2.99    3.03</time>
   <energy>
    <i name="e_fr_energy">   -845.64041603 </i>
    <i name="e_wo_entrp">   -845.64041603 </i>
    <i name="e_0_energy">   -845.64041603 </i>
   </energy>
  </scstep>
  <scstep>
   <time name="dav">    2.23    2.24</time>
   <time name="total">    2.84    2.88</time>
   <energy>
    <i name="e_fr_energy">   -845.59036147 </i>
    <i name="e_wo_entrp">   -845.59036147 </i>
    <i name="e_0_energy">   -845.59036147 </i>
   </energy>
  </scstep>
  <scstep>
   <time name="dav">    2.29    2.31</time>
   <time name="total">    2.91    2.95</time>
   <energy>
    <i name="e_fr_energy">   -845.57728060 </i>
    <i name="e_wo_entrp">   -845.57728060 </i>
    <i name="e_0_energy">   -845.57728060 </i>
   </energy>
  </scstep>
  <scstep>
   <time name="dav">    2.20    2.22</time>
   <time name="total">    2.82    2.85</time>
   <energy>
    <i name="e_fr_energy">   -845.57640817 </i>
    <i name="e_wo_entrp">   -845.57640817 </i>
    <i name="e_0_energy">   -845.57640817 </i>
   </energy>
  </scstep>
  <scstep>
   <time name="dav">    2.23    2.25</time>
   <time name="total">    2.84    2.87</time>
   <energy>
    <i name="e_fr_energy">   -845.58201510 </i>
    <i name="e_wo_entrp">   -845.58201510 </i>
    <i name="e_0_energy">   -845.58201510 </i>
   </energy>
  </scstep>
  <scstep>
   <time name="dav">    2.27    2.29</time>
   <time name="total">    2.88    2.91</time>
   <energy>
    <i name="e_fr_energy">   -845.60537578 </i>
    <i name="e_wo_entrp">   -845.60537578 </i>
    <i name="e_0_energy">   -845.60537578 </i>
   </energy>
  </scstep>
  <scstep>
   <time name="dav">    2.18    2.20</time>
   <time name="total">    2.80    2.82</time>
   <energy>
    <i name="e_fr_energy">   -845.63083687 </i>
    <i name="e_wo_entrp">   -845.63083687 </i>
    <i name="e_0_energy">   -845.63083687 </i>
   </energy>
  </scstep>
  <scstep>
   <time name="dav">    2.25    2.27</time>
   <time name="total">    2.86    2.90</time>
   <energy>
    <i name="e_fr_energy">   -845.64460971 </i>
    <i name="e_wo_entrp">   -845.64460971 </i>
    <i name="e_0_energy">   -845.64460971 </i>
   </energy>
  </scstep>
  <scstep>
   <time name="dav">    2.28    2.30</time>
   <time name="total">    2.89    2.92</time>
   <energy>
    <i name="e_fr_energy">   -845.65019706 </i>
    <i name="e_wo_entrp">   -845.65019706 </i>
    <i name="e_0_energy">   -845.65019706 </i>
   </energy>
  </scstep>
  <scstep>
   <time name="dav">    3.31    3.34</time>
   <time name="total">    4.28    4.32</time>
   <energy>
    <i name="e_fr_energy">   -845.65233872 </i>
    <i name="e_wo_entrp">   -845.65233872 </i>
    <i name="e_0_energy">   -845.65233872 </i>
   </energy>
  </scstep>
  <scstep>
   <time name="dav">    2.28    2.30</time>
   <time name="total">    2.89    2.92</time>
   <energy>
    <i name="e_fr_energy">   -845.65311959 </i>
    <i name="e_wo_entrp">   -845.65311959 </i>
    <i name="e_0_energy">   -845.65311959 </i>
   </energy>
  </scstep>
  <scstep>
   <time name="dav">    2.28    2.30</time>
   <time name="total">    2.89    2.93</time>
   <energy>
    <i name="e_fr_energy">   -845.65341035 </i>
    <i name="e_wo_entrp">   -845.65341035 </i>
    <i name="e_0_energy">   -845.65341035 </i>
   </energy>
  </scstep>
  <scstep>
   <time name="dav">    2.19    2.21</time>
   <time name="total">    2.80    2.84</time>
   <energy>
    <i name="e_fr_energy">   -845.65360367 </i>
    <i name="e_wo_entrp">   -845.65360367 </i>
    <i name="e_0_energy">   -845.65360367 </i>
   </energy>
  </scstep>
  <scstep>
   <time name="dav">    2.21    2.23</time>
   <time name="total">    2.82    2.86</time>
   <energy>
    <i name="e_fr_energy">   -845.65371619 </i>
    <i name="e_wo_entrp">   -845.65371619 </i>
    <i name="e_0_energy">   -845.65371619 </i>
   </energy>
  </scstep>
  <scstep>
   <time name="dav">    2.18    2.20</time>
   <time name="total">    2.80    2.84</time>
   <energy>
    <i name="e_fr_energy">   -845.65379121 </i>
    <i name="e_wo_entrp">   -845.65379121 </i>
    <i name="e_0_energy">   -845.65379121 </i>
   </energy>
  </scstep>
  <scstep>
   <time name="dav">    2.33    2.35</time>
   <time name="total">    2.95    2.99</time>
   <energy>
    <i name="e_fr_energy">   -845.65382238 </i>
    <i name="e_wo_entrp">   -845.65382238 </i>
    <i name="e_0_energy">   -845.65382238 </i>
   </energy>
  </scstep>
  <scstep>
   <time name="dav">    2.21    2.23</time>
   <time name="total">    2.82    2.86</time>
   <energy>
    <i name="e_fr_energy">   -845.65384019 </i>
    <i name="e_wo_entrp">   -845.65384019 </i>
    <i name="e_0_energy">   -845.65384019 </i>
   </energy>
  </scstep>
  <scstep>
   <time name="dav">    2.23    2.25</time>
   <time name="total">    2.85    2.89</time>
   <energy>
    <i name="e_fr_energy">   -845.65384643 </i>
    <i name="e_wo_entrp">   -845.65384643 </i>
    <i name="e_0_energy">   -845.65384643 </i>
   </energy>
  </scstep>
  <scstep>
   <time name="dav">    1.97    1.99</time>
   <time name="total">    2.59    2.62</time>
   <energy>
    <i name="e_fr_energy">   -845.65384891 </i>
    <i name="e_wo_entrp">   -845.65384891 </i>
    <i name="e_0_energy">   -845.65384891 </i>
   </energy>
  </scstep>
  <scstep>
   <time name="dav">    1.94    1.96</time>
   <time name="total">    2.57    2.60</time>
   <energy>
    <i name="e_fr_energy">   -845.65384975 </i>
    <i name="e_wo_entrp">   -845.65384975 </i>
    <i name="e_0_energy">   -845.65384975 </i>
   </energy>
  </scstep>
  <scstep>
   <time name="dav">    1.67    1.68</time>
   <time name="total">    2.28    2.31</time>
   <energy>
    <i name="e_fr_energy">   -845.65384991 </i>
    <i name="e_wo_entrp">   -845.65384991 </i>
    <i name="e_0_energy">   -845.65384991 </i>
   </energy>
  </scstep>
  <scstep>
   <time name="dav">    1.67    1.69</time>
   <time name="total">    2.30    2.32</time>
   <energy>
    <i name="e_fr_energy">   -845.65384999 </i>
    <i name="e_wo_entrp">   -845.65384999 </i>
    <i name="e_0_energy">   -845.65384999 </i>
   </energy>
  </scstep>
  <scstep>
   <time name="dav">    1.79    1.81</time>
   <time name="total">    2.42    2.45</time>
   <energy>
    <i name="e_fr_energy">   -845.65385001 </i>
    <i name="e_wo_entrp">   -845.65385001 </i>
    <i name="e_0_energy">   -845.65385001 </i>
   </energy>
  </scstep>
  <scstep>
   <time name="dav">    1.73    1.75</time>
   <time name="total">    2.10    2.14</time>
   <energy>
    <i name="alphaZ">    156.50993408 </i>
    <i name="ewald">  58206.76597993 </i>
    <i name="hartreedc"> -72314.26547343 </i>
    <i name="XCdc">   1369.72342886 </i>
    <i name="pawpsdc">  44018.61762982 </i>
    <i name="pawaedc"> -44053.95941950 </i>
    <i name="eentropy">     -0.00000000 </i>
    <i name="bandstr">  -4489.98473118 </i>
    <i name="atom">  16260.93880140 </i>
    <i name="e_fr_energy">   -845.65385001 </i>
    <i name="e_wo_entrp">   -845.65385001 </i>
    <i name="e_0_energy">   -845.65385001 </i>
   </energy>
  </scstep>
  <structure>
   <crystal>
    <varray name="basis" >
     <v>      17.59966831       0.00000000       0.00000000 </v>
     <v>      -8.79983416      15.24175986       0.00000000 </v>
     <v>       0.00000000       0.00000000      19.92151445 </v>
    </varray>
    <i name="volume">   5343.94461817 </i>
    <varray name="rec_basis" >
     <v>       0.05681925       0.03280461       0.00000000 </v>
     <v>       0.00000000       0.06560922       0.00000000 </v>
     <v>       0.00000000       0.00000000       0.05019699 </v>
    </varray>
   </crystal>
   <varray name="positions" >
    <v>       0.99980629       0.00005992       0.50037619 </v>
    <v>       0.14164706       0.99871895       0.50000000 </v>
    <v>       0.28492260       0.99841663       0.50000000 </v>
    <v>       0.42850047       0.99871895       0.50000000 </v>
    <v>       0.57205839       0.00005992       0.50000000 </v>
    <v>       0.71530655       0.00214292       0.50000000 </v>
    <v>       0.85826494       0.00214292       0.50000000 </v>
    <v>       0.00080792       0.14408264       0.50000000 </v>
    <v>       0.14259355       0.14244783       0.50000000 </v>
    <v>       0.28470221       0.14112972       0.50000000 </v>
    <v>       0.42785608       0.14112972       0.50000000 </v>
    <v>       0.57128286       0.14244783       0.50000000 </v>
    <v>       0.71470329       0.14408264       0.50000000 </v>
    <v>       0.85805263       0.14467669       0.50000000 </v>
    <v>       0.00095476       0.28713011       0.50000000 </v>
    <v>       0.14372552       0.28645370       0.50000000 </v>
    <v>       0.28540977       0.28469374       0.50000000 </v>
    <v>       0.42724431       0.28306005       0.50000000 </v>
    <v>       0.57071254       0.28469374       0.50000000 </v>
    <v>       0.71415674       0.28645370       0.50000000 </v>
    <v>       0.85760392       0.28713011       0.50000000 </v>
    <v>       0.00054479       0.42966101       0.50000000 </v>
    <v>       0.14422690       0.42957551       0.50000000 </v>
    <v>       0.28730213       0.42918005       0.50000000 </v>
    <v>       0.42797654       0.42569726       0.50000000 </v>
    <v>       0.56914930       0.42569726       0.50000000 </v>
    <v>       0.71330650       0.42918005       0.50000000 </v>
    <v>       0.85677719       0.42957551       0.50000000 </v>
    <v>       0.99928255       0.57181462       0.50000000 </v>
    <v>       0.14396064       0.57181462       0.50000000 </v>
    <v>       0.28862787       0.57181625       0.50000000 </v>
    <v>       0.43313209       0.57215564       0.50000000 </v>
    <v>       0.71045212       0.57215564       0.50000000 </v>
    <v>       0.85461695       0.57181625       0.50000000 </v>
    <v>       0.99707234       0.71370518       0.50000000 </v>
    <v>       0.14255519       0.71368182       0.50000000 </v>
    <v>       0.28806142       0.71370518       0.50000000 </v>
    <v>       0.43464191       0.71382540       0.50000000 </v>
    <v>       0.58510826       0.71626937       0.50000000 </v>
    <v>       0.70258968       0.71626937       0.50000000 </v>
    <v>       0.85061206       0.71382540       0.50000000 </v>
    <v>       0.99777175       0.85613493       0.50000000 </v>
    <v>       0.14160898       0.85591288       0.50000000 </v>
    <v>       0.28573247       0.85591288       0.50000000 </v>
    <v>       0.42979175       0.85613493       0.50000000 </v>
    <v>       0.57342541       0.85758690       0.50000000 </v>
    <v>       0.71640633       0.86138410       0.50000000 </v>
    <v>       0.85559006       0.85758690       0.50000000 </v>
    <v>       0.04754270       0.09547788       0.50000000 </v>
    <v>       0.18957833       0.09405657       0.50000000 </v>
    <v>       0.33254182       0.09365506       0.50000000 </v>
    <v>       0.47590681       0.09405657       0.50000000 </v>
    <v>       0.61936376       0.09547788       0.50000000 </v>
    <v>       0.76280004       0.09719274       0.50000000 </v>
    <v>       0.90582126       0.09719274       0.50000000 </v>
    <v>       0.04854983       0.23934281       0.50000000 </v>
    <v>       0.19048138       0.23782962       0.50000000 </v>
    <v>       0.33234878       0.23634667       0.50000000 </v>
    <v>       0.47542646       0.23634667       0.50000000 </v>
    <v>       0.61877681       0.23782962       0.50000000 </v>
    <v>       0.76222155       0.23934281       0.50000000 </v>
    <v>       0.90562797       0.23982737       0.50000000 </v>
    <v>       0.04871288       0.38232824       0.50000000 </v>
    <v>       0.19188940       0.38184213       0.50000000 </v>
    <v>       0.33352206       0.38013969       0.50000000 </v>
    <v>       0.47472270       0.37801683       0.50000000 </v>
    <v>       0.61804620       0.38013969       0.50000000 </v>
    <v>       0.76138130       0.38184213       0.50000000 </v>
    <v>       0.90504393       0.38232824       0.50000000 </v>
    <v>       0.04810654       0.52478452       0.50000000 </v>
    <v>       0.19263929       0.52476864       0.50000000 </v>
    <v>       0.33696521       0.52455433       0.50000000 </v>
    <v>       0.47833704       0.52146721       0.50000000 </v>
    <v>       0.61455874       0.52146721       0.50000000 </v>
    <v>       0.75901769       0.52455433       0.50000000 </v>
    <v>       0.90355792       0.52476864       0.50000000 </v>
    <v>       0.04642473       0.66685228       0.50000000 </v>
    <v>       0.19185612       0.66685228       0.50000000 </v>
    <v>       0.33777931       0.66688794       0.50000000 </v>
    <v>       0.48615700       0.66710760       0.50000000 </v>
    <v>       0.75237918       0.66710760       0.50000000 </v>
    <v>       0.90053720       0.66688794       0.50000000 </v>
    <v>       0.04582562       0.80879365       0.50000000 </v>
    <v>       0.19009580       0.80876303       0.50000000 </v>
    <v>       0.33439660       0.80879365       0.50000000 </v>
    <v>       0.47844872       0.80897069       0.50000000 </v>
    <v>       0.62209487       0.81129474       0.50000000 </v>
    <v>       0.76062845       0.81129474       0.50000000 </v>
    <v>       0.90195054       0.80897069       0.50000000 </v>
    <v>       0.04629157       0.95154386       0.50000000 </v>
    <v>       0.18948291       0.95113037       0.50000000 </v>
    <v>       0.33307603       0.95113037       0.50000000 </v>
    <v>       0.47668087       0.95154386       0.50000000 </v>
    <v>       0.62015751       0.95313740       0.50000000 </v>
    <v>       0.76355772       0.95568687       0.50000000 </v>
    <v>       0.90440847       0.95313740       0.50000000 </v>
    <v>       0.56830873       0.56518888       0.50000000 </v>
   </varray>
  </structure>
  <varray name="forces" >
   <v>      -0.37003677      -0.02530452      -0.10678901 </v>
   <v>       0.00716495      -0.00373757       0.00018801 </v>
   <v>       0.00384905      -0.01113788      -0.00046824 </v>
   <v>       0.02394521      -0.00935450       0.00000733 </v>
   <v>       0.04171546      -0.02681614       0.00000725 </v>
   <v>      -0.02977582      -0.05155549      -0.00048841 </v>
   <v>       0.06299885      -0.05633288       0.00030807 </v>
   <v>      -0.01423592      -0.04166735       0.00044617 </v>
   <v>      -0.03465825      -0.01019734       0.00017186 </v>
   <v>      -0.00413062      -0.03110730       0.00008682 </v>
   <v>       0.00983663      -0.03249878      -0.00001522 </v>
   <v>       0.02877866      -0.02553038      -0.00001469 </v>
   <v>       0.00807745      -0.02805244      -0.00001299 </v>
   <v>       0.00338903      -0.04396858       0.00007129 </v>
   <v>      -0.01012777      -0.03064653      -0.00046608 </v>
   <v>       0.00446336      -0.04433873       0.00007571 </v>
   <v>      -0.03208661      -0.00136496      -0.00047806 </v>
   <v>       0.00085887      -0.09295442      -0.00001854 </v>
   <v>       0.03160166      -0.00231699      -0.00000797 </v>
   <v>      -0.00427117      -0.04478960      -0.00001255 </v>
   <v>       0.00934304      -0.03029791      -0.00001360 </v>
   <v>      -0.00010240       0.00633187       0.00000733 </v>
   <v>      -0.02572149      -0.00129184      -0.00001435 </v>
   <v>       0.05703491      -0.13807831      -0.00001684 </v>
   <v>      -0.11199156      -0.19945102       0.00005161 </v>
   <v>       0.11219140      -0.19960003       0.00000345 </v>
   <v>      -0.05704027      -0.13834976      -0.00001958 </v>
   <v>       0.02563194      -0.00183172      -0.00001519 </v>
   <v>       0.01681664       0.02732803       0.00000883 </v>
   <v>      -0.01666461       0.02810903      -0.00001571 </v>
   <v>      -0.08533500       0.12816247      -0.00001160 </v>
   <v>       0.05075579       0.39763132      -0.00002249 </v>
   <v>      -0.05082057       0.39815008       0.00000404 </v>
   <v>       0.08528149       0.12689400      -0.00001110 </v>
   <v>      -0.01003287       0.01741496      -0.00047397 </v>
   <v>       0.00083317       0.02596643      -0.00001190 </v>
   <v>       0.00946210       0.02197003      -0.00001390 </v>
   <v>       0.08752919       0.04343393      -0.00001090 </v>
   <v>       1.36460141       1.25247528       0.00042867 </v>
   <v>      -1.36559765       1.25567655       0.00007636 </v>
   <v>      -0.08739533       0.04280132       0.00006018 </v>
   <v>      -0.05481881      -0.03490999       0.00029567 </v>
   <v>      -0.00930004      -0.00678074       0.00007213 </v>
   <v>       0.01487624      -0.00456502      -0.00001531 </v>
   <v>       0.04836836      -0.00778707      -0.00000974 </v>
   <v>       0.15310943       0.03641181      -0.00008511 </v>
   <v>       0.00329966      -0.24984985       0.00018035 </v>
   <v>      -0.15783746       0.06399707       0.00017489 </v>
   <v>       0.08028070       0.03185610       0.03787639 </v>
   <v>       0.00900907       0.01418060       0.00158040 </v>
   <v>      -0.00250653       0.02582325       0.00004609 </v>
   <v>      -0.01238582       0.02298053       0.00001039 </v>
   <v>      -0.02827218       0.03251363       0.00001252 </v>
   <v>      -0.01506282       0.02880059       0.00004541 </v>
   <v>       0.01114176       0.03633497       0.00153049 </v>
   <v>       0.02012546       0.03485851      -0.00208113 </v>
   <v>      -0.00479537       0.00407386      -0.00213741 </v>
   <v>       0.01538345       0.03337306       0.00004505 </v>
   <v>      -0.01666755       0.03490087       0.00001438 </v>
   <v>       0.00762815       0.00346192       0.00000899 </v>
   <v>      -0.01722676       0.03652474       0.00001559 </v>
   <v>      -0.00033918       0.03365084       0.00004884 </v>
   <v>       0.01153259       0.02698505       0.00014059 </v>
   <v>       0.04828481       0.05956432       0.00018789 </v>
   <v>      -0.02135518      -0.20058139       0.00012988 </v>
   <v>      -0.00018848       0.10946620      -0.00000151 </v>
   <v>       0.02147676      -0.20023483       0.00001608 </v>
   <v>      -0.04817370       0.05996816       0.00001323 </v>
   <v>      -0.01132342       0.02731969       0.00000957 </v>
   <v>      -0.00025305       0.01000149       0.00000519 </v>
   <v>       0.02539753      -0.00676860       0.00000045 </v>
   <v>       0.18988512       0.11213988      -0.00000356 </v>
   <v>       1.02293381      -1.56414178       0.00013373 </v>
   <v>      -1.02307656      -1.56411904       0.00008135 </v>
   <v>      -0.18940443       0.11246305       0.00001261 </v>
   <v>      -0.02556178      -0.00613156       0.00000974 </v>
   <v>       0.00923065      -0.03094446       0.00014918 </v>
   <v>      -0.01088730      -0.03222042      -0.00000036 </v>
   <v>      -0.05997497      -0.06650955       0.00000895 </v>
   <v>      -0.27163249       0.00825822       0.00003893 </v>
   <v>       0.27286179       0.00741587       0.00004429 </v>
   <v>       0.06099683      -0.06501229       0.00004835 </v>
   <v>       0.03284165      -0.00473918      -0.00213431 </v>
   <v>      -0.00267942      -0.00945089       0.00018589 </v>
   <v>      -0.03812466      -0.01264218      -0.00000147 </v>
   <v>      -0.08711981      -0.01378565       0.00001045 </v>
   <v>      -0.88882455       0.24207593      -0.00005558 </v>
   <v>       0.88206120       0.23490075      -0.00250797 </v>
   <v>       0.09928130      -0.01346478       0.00154656 </v>
   <v>       0.15195107      -0.02233001       0.03740870 </v>
   <v>       0.00369050      -0.00173866      -0.00207518 </v>
   <v>      -0.01257954      -0.00357657       0.00013935 </v>
   <v>      -0.03373243       0.01710948       0.00000431 </v>
   <v>      -0.11324315       0.11907399       0.00017369 </v>
   <v>      -0.00662329       0.01436806      -0.00210681 </v>
   <v>       0.23199341       0.15712777       0.03870887 </v>
   <v>       0.00019386      -0.11946808      -0.00053011 </v>
  </varray>
  <varray name="stress" >
   <v>     -10.60623978      -0.02398403      -0.00083090 </v>
   <v>      -0.02398404       3.03584969      -0.00005580 </v>
   <v>      -0.00083091      -0.00005580      -0.42579953 </v>
  </varray>
  <energy>
   <i name="e_fr_energy">   -845.65385001 </i>
   <i name="e_wo_entrp">   -845.65385001 </i>
   <i name="e_0_energy">     -0.00000000 </i>
  </energy>
  <time name="totalsc">   99.67  101.17</time>
  <eigenvalues>
   <array>
    <dimension dim="1">band</dimension>
    <dimension dim="2">kpoint</dimension>
    <dimension dim="3">spin</dimension>
    <field>eigene</field>
    <field>occ</field>
    <set>
     <set comment="spin 1">
      <set comment="kpoint 1">
       <r>  -22.5407    1.0000 </r>
       <r>  -22.0206    1.0000 </r>
       <r>  -21.7736    1.0000 </r>
       <r>  -21.7458    1.0000 </r>
       <r>  -21.6970    1.0000 </r>
       <r>  -21.6558    1.0000 </r>
       <r>  -21.6147    1.0000 </r>
       <r>  -21.2358    1.0000 </r>
       <r>  -21.0702    1.0000 </r>
       <r>  -21.0053    1.0000 </r>
       <r>  -20.9687    1.0000 </r>
       <r>  -20.9280    1.0000 </r>
       <r>  -20.8766    1.0000 </r>
       <r>  -20.7461    1.0000 </r>
       <r>  -20.7009    1.0000 </r>
       <r>  -20.6647    1.0000 </r>
       <r>  -20.5936    1.0000 </r>
       <r>  -20.5667    1.0000 </r>
       <r>  -20.4287    1.0000 </r>
       <r>  -19.9807    1.0000 </r>
       <r>  -19.9243    1.0000 </r>
       <r>  -19.8049    1.0000 </r>
       <r>  -19.7631    1.0000 </r>
       <r>  -19.7404    1.0000 </r>
       <r>  -19.7360    1.0000 </r>
       <r>  -19.7058    1.0000 </r>
       <r>  -19.6980    1.0000 </r>
       <r>  -19.6444    1.0000 </r>
       <r>  -19.6395    1.0000 </r>
       <r>  -19.6270    1.0000 </r>
       <r>  -19.4931    1.0000 </r>
       <r>  -19.4087    1.0000 </r>
       <r>  -19.3617    1.0000 </r>
       <r>  -19.3574    1.0000 </r>
       <r>  -19.2890    1.0000 </r>
       <r>  -19.2390    1.0000 </r>
       <r>  -19.1086    1.0000 </r>
       <r>  -19.0014    1.0000 </r>
       <r>  -18.9311    1.0000 </r>
       <r>  -18.8758    1.0000 </r>
       <r>  -18.8544    1.0000 </r>
       <r>  -18.8393    1.0000 </r>
       <r>  -18.7650    1.0000 </r>
       <r>  -18.7491    1.0000 </r>
       <r>  -18.7249    1.0000 </r>
       <r>  -18.7149    1.0000 </r>
       <r>  -18.6951    1.0000 </r>
       <r>  -18.4401    1.0000 </r>
       <r>  -14.1404    1.0000 </r>
       <r>  -13.1836    1.0000 </r>
       <r>  -13.1569    1.0000 </r>
       <r>  -13.1108    1.0000 </r>
       <r>  -13.1040    1.0000 </r>
       <r>  -13.0799    1.0000 </r>
       <r>  -13.0176    1.0000 </r>
       <r>  -12.9608    1.0000 </r>
       <r>  -12.9485    1.0000 </r>
       <r>  -12.9363    1.0000 </r>
       <r>  -12.8054    1.0000 </r>
       <r>  -12.7656    1.0000 </r>
       <r>  -12.6010    1.0000 </r>
       <r>  -12.5038    1.0000 </r>
       <r>  -12.4857    1.0000 </r>
       <r>  -12.3781    1.0000 </r>
       <r>  -12.3087    1.0000 </r>
       <r>  -12.2969    1.0000 </r>
       <r>  -12.1764    1.0000 </r>
       <r>  -11.9019    1.0000 </r>
       <r>  -11.8856    1.0000 </r>
       <r>  -11.7696    1.0000 </r>
       <r>  -11.7647    1.0000 </r>
       <r>  -11.7511    1.0000 </r>
       <r>  -11.7412    1.0000 </r>
       <r>  -11.6925    1.0000 </r>
       <r>  -11.6554    1.0000 </r>
       <r>  -11.6312    1.0000 </r>
       <r>  -11.5397    1.0000 </r>
       <r>  -11.4223    1.0000 </r>
       <r>  -11.2000    1.0000 </r>
       <r>  -11.1225    1.0000 </r>
       <r>  -11.0866    1.0000 </r>
       <r>  -11.0586    1.0000 </r>
       <r>  -10.9651    1.0000 </r>
       <r>  -10.9122    1.0000 </r>
       <r>  -10.6857    1.0000 </r>
       <r>  -10.4618    1.0000 </r>
       <r>  -10.4308    1.0000 </r>
       <r>  -10.3499    1.0000 </r>
       <r>  -10.2547    1.0000 </r>
       <r>  -10.2068    1.0000 </r>
       <r>   -9.8896    1.0000 </r>
       <r>   -9.7689    1.0000 </r>
       <r>   -9.7632    1.0000 </r>
       <r>   -9.7249    1.0000 </r>
       <r>   -9.6769    1.0000 </r>
       <r>   -9.5875    1.0000 </r>
       <r>   -9.5443    1.0000 </r>
       <r>   -9.5001    1.0000 </r>
       <r>   -9.4650    1.0000 </r>
       <r>   -9.3518    1.0000 </r>
       <r>   -9.3448    1.0000 </r>
       <r>   -9.2886    1.0000 </r>
       <r>   -9.2609    1.0000 </r>
       <r>   -9.2560    1.0000 </r>
       <r>   -9.2525    1.0000 </r>
       <r>   -9.2393    1.0000 </r>
       <r>   -9.2238    1.0000 </r>
       <r>   -9.2231    1.0000 </r>
       <r>   -9.2070    1.0000 </r>
       <r>   -9.2022    1.0000 </r>
       <r>   -9.2011    1.0000 </r>
       <r>   -9.1967    1.0000 </r>
       <r>   -9.1549    1.0000 </r>
       <r>   -9.1340    1.0000 </r>
       <r>   -9.1124    1.0000 </r>
       <r>   -9.1103    1.0000 </r>
       <r>   -9.1001    1.0000 </r>
       <r>   -9.0449    1.0000 </r>
       <r>   -8.9909    1.0000 </r>
       <r>   -8.8444    1.0000 </r>
       <r>   -8.7933    1.0000 </r>
       <r>   -8.6536    1.0000 </r>
       <r>   -8.5069    1.0000 </r>
       <r>   -8.4830    1.0000 </r>
       <r>   -8.4428    1.0000 </r>
       <r>   -8.3273    1.0000 </r>
       <r>   -8.2233    1.0000 </r>
       <r>   -8.2011    1.0000 </r>
       <r>   -8.1983    1.0000 </r>
       <r>   -8.1703    1.0000 </r>
       <r>   -8.1484    1.0000 </r>
       <r>   -8.1241    1.0000 </r>
       <r>   -8.0390    1.0000 </r>
       <r>   -7.9712    1.0000 </r>
       <r>   -7.9512    1.0000 </r>
       <r>   -7.8737    1.0000 </r>
       <r>   -7.8488    1.0000 </r>
       <r>   -7.8476    1.0000 </r>
       <r>   -7.8017    1.0000 </r>
       <r>   -7.7999    1.0000 </r>
       <r>   -7.7959    1.0000 </r>
       <r>   -7.7354    1.0000 </r>
       <r>   -7.7348    1.0000 </r>
       <r>   -7.7121    1.0000 </r>
       <r>   -7.6772    1.0000 </r>
       <r>   -7.6728    1.0000 </r>
       <r>   -7.6646    1.0000 </r>
       <r>   -7.6371    1.0000 </r>
       <r>   -7.6312    1.0000 </r>
       <r>   -7.4418    1.0000 </r>
       <r>   -7.4373    1.0000 </r>
       <r>   -7.4253    1.0000 </r>
       <r>   -7.3878    1.0000 </r>
       <r>   -7.3587    1.0000 </r>
       <r>   -7.2726    1.0000 </r>
       <r>   -6.8342    1.0000 </r>
       <r>   -6.7583    1.0000 </r>
       <r>   -6.6217    1.0000 </r>
       <r>   -6.6061    1.0000 </r>
       <r>   -6.5423    1.0000 </r>
       <r>   -6.5355    1.0000 </r>
       <r>   -6.5013    1.0000 </r>
       <r>   -6.4893    1.0000 </r>
       <r>   -6.4570    1.0000 </r>
       <r>   -6.4565    1.0000 </r>
       <r>   -6.4430    1.0000 </r>
       <r>   -6.4399    1.0000 </r>
       <r>   -6.4093    1.0000 </r>
       <r>   -6.4032    1.0000 </r>
       <r>   -6.3596    1.0000 </r>
       <r>   -6.3447    1.0000 </r>
       <r>   -6.3180    1.0000 </r>
       <r>   -6.1099    1.0000 </r>
       <r>   -5.9697    1.0000 </r>
       <r>   -5.9262    1.0000 </r>
       <r>   -5.8851    1.0000 </r>
       <r>   -5.8813    1.0000 </r>
       <r>   -5.8629    1.0000 </r>
       <r>   -5.7801    1.0000 </r>
       <r>   -5.7795    1.0000 </r>
       <r>   -5.5280    1.0000 </r>
       <r>   -5.2213    1.0000 </r>
       <r>   -5.1961    1.0000 </r>
       <r>   -5.1953    1.0000 </r>
       <r>   -5.1411    1.0000 </r>
       <r>   -5.1336    1.0000 </r>
       <r>   -5.1043    1.0000 </r>
       <r>   -4.9991    1.0000 </r>
       <r>   -4.9446    1.0000 </r>
       <r>   -4.9194    1.0000 </r>
       <r>   -4.9056    1.0000 </r>
       <r>   -4.9001    1.0000 </r>
       <r>   -4.7279    1.0000 </r>
       <r>   -1.3142    1.0000 </r>
       <r>   -1.2013    0.0000 </r>
       <r>    0.0598    0.0000 </r>
       <r>    0.2046    0.0000 </r>
       <r>    0.2392    0.0000 </r>
       <r>    0.2583    0.0000 </r>
       <r>    0.2605    0.0000 </r>
       <r>    0.3022    0.0000 </r>
       <r>    0.3041    0.0000 </r>
       <r>    0.3772    0.0000 </r>
       <r>    0.3916    0.0000 </r>
       <r>    0.4341    0.0000 </r>
       <r>    0.4799    0.0000 </r>
       <r>    0.5254    0.0000 </r>
       <r>    0.6121    0.0000 </r>
       <r>    0.7466    0.0000 </r>
       <r>    0.7479    0.0000 </r>
       <r>    0.7778    0.0000 </r>
       <r>    0.8061    0.0000 </r>
       <r>    0.8113    0.0000 </r>
       <r>    0.8303    0.0000 </r>
       <r>    0.8372    0.0000 </r>
       <r>    0.8583    0.0000 </r>
       <r>    0.8722    0.0000 </r>
       <r>    0.9818    0.0000 </r>
       <r>    1.0207    0.0000 </r>
       <r>    1.0596    0.0000 </r>
       <r>    1.1186    0.0000 </r>
       <r>    1.4953    0.0000 </r>
       <r>    1.6730    0.0000 </r>
       <r>    1.6971    0.0000 </r>
       <r>    1.7056    0.0000 </r>
       <r>    1.7239    0.0000 </r>
       <r>    1.7397    0.0000 </r>
       <r>    1.7450    0.0000 </r>
       <r>    1.8045    0.0000 </r>
       <r>    1.8077    0.0000 </r>
       <r>    1.8446    0.0000 </r>
       <r>    1.8461    0.0000 </r>
       <r>    1.8782    0.0000 </r>
       <r>    1.8800    0.0000 </r>
       <r>    1.9067    0.0000 </r>
       <r>    1.9088    0.0000 </r>
       <r>    1.9317    0.0000 </r>
       <r>    1.9835    0.0000 </r>
       <r>    2.0298    0.0000 </r>
       <r>    2.1014    0.0000 </r>
       <r>    2.1113    0.0000 </r>
       <r>    2.1288    0.0000 </r>
       <r>    2.1351    0.0000 </r>
       <r>    2.1357    0.0000 </r>
      </set>
     </set>
    </set>
   </array>
  </eigenvalues>
  <separator name="orbital magnetization" >
   <v name="MAGDIPOLOUT">      0.00000000      0.00000000      0.00000000</v>
  </separator>
  <dos>
   <i name="efermi">     -1.25625952 </i>
   <total>
    <array>
     <dimension dim="1">gridpoints</dimension>
     <dimension dim="2">spin</dimension>
     <field>energy</field>
     <field>total</field>
     <field>integrated</field>
     <set>
      <set comment="spin 1">
       <r>   -23.7745     0.0000     0.0000 </r>
       <r>   -23.6840     0.0000     0.0000 </r>
       <r>   -23.5936     0.0000     0.0000 </r>
       <r>   -23.5031     0.0000     0.0000 </r>
       <r>   -23.4126     0.0000     0.0000 </r>
       <r>   -23.3221     0.0000     0.0000 </r>
       <r>   -23.2316     0.0000     0.0000 </r>
       <r>   -23.1412     0.0000     0.0000 </r>
       <r>   -23.0507     0.0000     0.0000 </r>
       <r>   -22.9602     0.0000     0.0000 </r>
       <r>   -22.8697     0.0000     0.0000 </r>
       <r>   -22.7792     0.0000     0.0000 </r>
       <r>   -22.6888     0.0000     0.0000 </r>
       <r>   -22.5983     0.0000     0.0000 </r>
       <r>   -22.5078    22.1042     2.0000 </r>
       <r>   -22.4173     0.0000     2.0000 </r>
       <r>   -22.3268     0.0000     2.0000 </r>
       <r>   -22.2364     0.0000     2.0000 </r>
       <r>   -22.1459     0.0000     2.0000 </r>
       <r>   -22.0554     0.0000     2.0000 </r>
       <r>   -21.9649    22.1043     4.0000 </r>
       <r>   -21.8744     0.0000     4.0000 </r>
       <r>   -21.7840     1.5983     4.1446 </r>
       <r>   -21.6935    37.3334     9.3779 </r>
       <r>   -21.6030    43.1236    13.9018 </r>
       <r>   -21.5125     0.0000    14.0000 </r>
       <r>   -21.4220     0.0000    14.0000 </r>
       <r>   -21.3316     0.0000    14.0000 </r>
       <r>   -21.2411     5.0732    14.4590 </r>
       <r>   -21.1506     0.0000    16.0000 </r>
       <r>   -21.0601    20.4077    17.8465 </r>
       <r>   -20.9696    31.9328    20.8893 </r>
       <r>   -20.8792    30.0907    24.7226 </r>
       <r>   -20.7887     0.0000    26.0000 </r>
       <r>   -20.6982    36.4656    29.2994 </r>
       <r>   -20.6077    22.6051    32.0453 </r>
       <r>   -20.5172    43.7077    36.0000 </r>
       <r>   -20.4268    13.4136    37.2137 </r>
       <r>   -20.3363     0.0000    38.0000 </r>
       <r>   -20.2458     0.0000    38.0000 </r>
       <r>   -20.1553     0.0000    38.0000 </r>
       <r>   -20.0648     0.0000    38.0000 </r>
       <r>   -19.9744    18.0142    39.6299 </r>
       <r>   -19.8839    22.1043    42.0000 </r>
       <r>   -19.7934    20.9680    43.8972 </r>
       <r>   -19.7029    86.2445    51.8034 </r>
       <r>   -19.6124    65.8816    59.9610 </r>
       <r>   -19.5220     0.0005    60.0000 </r>
       <r>   -19.4315    22.1176    62.0013 </r>
       <r>   -19.3410    66.0361    67.9762 </r>
       <r>   -19.2505    23.2530    70.1039 </r>
       <r>   -19.1600    20.9556    72.0000 </r>
       <r>   -19.0696    22.1043    74.0000 </r>
       <r>   -18.9791    22.0869    75.9984 </r>
       <r>   -18.8886    22.8866    78.0708 </r>
       <r>   -18.7981    65.5305    84.0000 </r>
       <r>   -18.7076    85.7754    91.7610 </r>
       <r>   -18.6172    21.2542    94.0000 </r>
       <r>   -18.5267     0.0000    94.0000 </r>
       <r>   -18.4362    15.6400    95.4151 </r>
       <r>   -18.3457     0.0000    96.0000 </r>
       <r>   -18.2552     0.0000    96.0000 </r>
       <r>   -18.1648     0.0000    96.0000 </r>
       <r>   -18.0743     0.0000    96.0000 </r>
       <r>   -17.9838     0.0000    96.0000 </r>
       <r>   -17.8933     0.0000    96.0000 </r>
       <r>   -17.8028     0.0000    96.0000 </r>
       <r>   -17.7123     0.0000    96.0000 </r>
       <r>   -17.6219     0.0000    96.0000 </r>
       <r>   -17.5314     0.0000    96.0000 </r>
       <r>   -17.4409     0.0000    96.0000 </r>
       <r>   -17.3504     0.0000    96.0000 </r>
       <r>   -17.2599     0.0000    96.0000 </r>
       <r>   -17.1695     0.0000    96.0000 </r>
       <r>   -17.0790     0.0000    96.0000 </r>
       <r>   -16.9885     0.0000    96.0000 </r>
       <r>   -16.8980     0.0000    96.0000 </r>
       <r>   -16.8075     0.0000    96.0000 </r>
       <r>   -16.7171     0.0000    96.0000 </r>
       <r>   -16.6266     0.0000    96.0000 </r>
       <r>   -16.5361     0.0000    96.0000 </r>
       <r>   -16.4456     0.0000    96.0000 </r>
       <r>   -16.3551     0.0000    96.0000 </r>
       <r>   -16.2647     0.0000    96.0000 </r>
       <r>   -16.1742     0.0000    96.0000 </r>
       <r>   -16.0837     0.0000    96.0000 </r>
       <r>   -15.9932     0.0000    96.0000 </r>
       <r>   -15.9027     0.0000    96.0000 </r>
       <r>   -15.8123     0.0000    96.0000 </r>
       <r>   -15.7218     0.0000    96.0000 </r>
       <r>   -15.6313     0.0000    96.0000 </r>
       <r>   -15.5408     0.0000    96.0000 </r>
       <r>   -15.4503     0.0000    96.0000 </r>
       <r>   -15.3599     0.0000    96.0000 </r>
       <r>   -15.2694     0.0000    96.0000 </r>
       <r>   -15.1789     0.0000    96.0000 </r>
       <r>   -15.0884     0.0000    96.0000 </r>
       <r>   -14.9979     0.0000    96.0000 </r>
       <r>   -14.9075     0.0000    96.0000 </r>
       <r>   -14.8170     0.0000    96.0000 </r>
       <r>   -14.7265     0.0000    96.0000 </r>
       <r>   -14.6360     0.0000    96.0000 </r>
       <r>   -14.5455     0.0000    96.0000 </r>
       <r>   -14.4551     0.0000    96.0000 </r>
       <r>   -14.3646     0.0000    96.0000 </r>
       <r>   -14.2741     0.0000    96.0000 </r>
       <r>   -14.1836     0.0000    96.0000 </r>
       <r>   -14.0931    22.1043    98.0000 </r>
       <r>   -14.0027     0.0000    98.0000 </r>
       <r>   -13.9122     0.0000    98.0000 </r>
       <r>   -13.8217     0.0000    98.0000 </r>
       <r>   -13.7312     0.0000    98.0000 </r>
       <r>   -13.6407     0.0000    98.0000 </r>
       <r>   -13.5503     0.0000    98.0000 </r>
       <r>   -13.4598     0.0000    98.0000 </r>
       <r>   -13.3693     0.0000    98.0000 </r>
       <r>   -13.2788     0.0000    98.0000 </r>
       <r>   -13.1883     5.5751    98.5044 </r>
       <r>   -13.0979    61.4523   105.5602 </r>
       <r>   -13.0074    42.4346   109.8507 </r>
       <r>   -12.9169    66.2469   115.9940 </r>
       <r>   -12.8264     0.0327   116.0030 </r>
       <r>   -12.7359    44.1755   120.0000 </r>
       <r>   -12.6455     0.0000   120.0000 </r>
       <r>   -12.5550    22.1043   122.0000 </r>
       <r>   -12.4645    44.1791   125.9973 </r>
       <r>   -12.3740    15.8420   127.4334 </r>
       <r>   -12.2835    43.5636   131.9416 </r>
       <r>   -12.1931     0.2016   132.0182 </r>
       <r>   -12.1026    21.9027   134.0000 </r>
       <r>   -12.0121     0.0000   134.0000 </r>
       <r>   -11.9216     0.0588   134.0053 </r>
       <r>   -11.8311    44.1498   138.0000 </r>
       <r>   -11.7407    76.5245   144.9240 </r>
       <r>   -11.6502    39.2156   149.5482 </r>
       <r>   -11.5597    22.0746   152.0047 </r>
       <r>   -11.4692    22.0524   154.0000 </r>
       <r>   -11.3787    22.1043   156.0000 </r>
       <r>   -11.2883     0.0000   156.0000 </r>
       <r>   -11.1978    13.7455   157.2437 </r>
       <r>   -11.1073    21.7969   159.9722 </r>
       <r>   -11.0168    44.1702   164.0000 </r>
       <r>   -10.9263    22.6131   166.0460 </r>
       <r>   -10.8359    21.5955   168.0000 </r>
       <r>   -10.7454     0.0000   168.0000 </r>
       <r>   -10.6549    22.1041   170.0000 </r>
       <r>   -10.5644     0.0000   170.0000 </r>
       <r>   -10.4739     0.9436   170.0854 </r>
       <r>   -10.3835    43.2650   174.0000 </r>
       <r>   -10.2930    22.1043   176.0000 </r>
       <r>   -10.2025    38.1883   179.4553 </r>
       <r>   -10.1120     0.0000   180.0000 </r>
       <r>   -10.0215     0.0000   180.0000 </r>
       <r>    -9.9311     0.0000   180.0000 </r>
       <r>    -9.8406    22.1043   182.0000 </r>
       <r>    -9.7501    43.4114   185.9279 </r>
       <r>    -9.6596    44.0430   189.9854 </r>
       <r>    -9.5691    22.0040   191.9909 </r>
       <r>    -9.4786    44.7771   196.0519 </r>
       <r>    -9.3882    21.5045   198.0000 </r>
       <r>    -9.2977    46.3921   202.1976 </r>
       <r>    -9.2072   154.0944   217.9425 </r>
       <r>    -9.1167    54.2663   228.9100 </r>
       <r>    -9.0262    43.9085   235.9917 </r>
       <r>    -8.9358    22.1043   238.0000 </r>
       <r>    -8.8453     9.9465   238.9000 </r>
       <r>    -8.7548    22.1043   242.0000 </r>
       <r>    -8.6643     1.4237   242.1288 </r>
       <r>    -8.5738    20.6806   244.0000 </r>
       <r>    -8.4834    32.6360   246.9529 </r>
       <r>    -8.3929    22.1043   250.0000 </r>
       <r>    -8.3024    22.0996   251.9996 </r>
       <r>    -8.2119    22.9133   254.0732 </r>
       <r>    -8.1214   100.6997   263.2914 </r>
       <r>    -8.0310    19.3054   265.7468 </r>
       <r>    -7.9405    42.7675   269.8696 </r>
       <r>    -7.8500    39.6683   273.5892 </r>
       <r>    -7.7595    66.3250   282.0011 </r>
       <r>    -7.6690   106.9903   291.6816 </r>
       <r>    -7.5786    44.2085   298.0000 </r>
       <r>    -7.4881     0.0000   298.0000 </r>
       <r>    -7.3976    68.1457   304.1658 </r>
       <r>    -7.3071    22.1043   308.0000 </r>
       <r>    -7.2166    22.1043   310.0000 </r>
       <r>    -7.1262     0.0000   310.0000 </r>
       <r>    -7.0357     0.0000   310.0000 </r>
       <r>    -6.9452     0.0000   310.0000 </r>
       <r>    -6.8547     0.0411   310.0037 </r>
       <r>    -6.7642    26.4658   312.3984 </r>
       <r>    -6.6738     0.0000   314.0000 </r>
       <r>    -6.5833    44.1949   317.9988 </r>
       <r>    -6.4928    70.6460   324.3921 </r>
       <r>    -6.4023   119.0633   336.7729 </r>
       <r>    -6.3118    62.0863   343.6176 </r>
       <r>    -6.2214     0.0000   344.0000 </r>
       <r>    -6.1309     0.0334   344.0030 </r>
       <r>    -6.0404    22.0709   346.0000 </r>
       <r>    -5.9499    22.0563   347.9957 </r>
       <r>    -5.8594    81.4466   355.3701 </r>
       <r>    -5.7690    41.4223   359.7479 </r>
       <r>    -5.6785     0.0000   360.0000 </r>
       <r>    -5.5880     0.0000   360.0000 </r>
       <r>    -5.4975    22.1041   362.0000 </r>
       <r>    -5.4070     0.0000   362.0000 </r>
       <r>    -5.3166     0.0000   362.0000 </r>
       <r>    -5.2261     5.5533   362.5025 </r>
       <r>    -5.1356    70.0825   370.3411 </r>
       <r>    -5.0451    22.1042   374.0000 </r>
       <r>    -4.9546    23.8246   376.1557 </r>
       <r>    -4.8642    66.3128   384.0000 </r>
       <r>    -4.7737     0.0000   384.0000 </r>
       <r>    -4.6832    22.1043   386.0000 </r>
       <r>    -4.5927     0.0000   386.0000 </r>
       <r>    -4.5022     0.0000   386.0000 </r>
       <r>    -4.4118     0.0000   386.0000 </r>
       <r>    -4.3213     0.0000   386.0000 </r>
       <r>    -4.2308     0.0000   386.0000 </r>
       <r>    -4.1403     0.0000   386.0000 </r>
       <r>    -4.0498     0.0000   386.0000 </r>
       <r>    -3.9594     0.0000   386.0000 </r>
       <r>    -3.8689     0.0000   386.0000 </r>
       <r>    -3.7784     0.0000   386.0000 </r>
       <r>    -3.6879     0.0000   386.0000 </r>
       <r>    -3.5974     0.0000   386.0000 </r>
       <r>    -3.5070     0.0000   386.0000 </r>
       <r>    -3.4165     0.0000   386.0000 </r>
       <r>    -3.3260     0.0000   386.0000 </r>
       <r>    -3.2355     0.0000   386.0000 </r>
       <r>    -3.1450     0.0000   386.0000 </r>
       <r>    -3.0546     0.0000   386.0000 </r>
       <r>    -2.9641     0.0000   386.0000 </r>
       <r>    -2.8736     0.0000   386.0000 </r>
       <r>    -2.7831     0.0000   386.0000 </r>
       <r>    -2.6926     0.0000   386.0000 </r>
       <r>    -2.6022     0.0000   386.0000 </r>
       <r>    -2.5117     0.0000   386.0000 </r>
       <r>    -2.4212     0.0000   386.0000 </r>
       <r>    -2.3307     0.0000   386.0000 </r>
       <r>    -2.2402     0.0000   386.0000 </r>
       <r>    -2.1498     0.0000   386.0000 </r>
       <r>    -2.0593     0.0000   386.0000 </r>
       <r>    -1.9688     0.0000   386.0000 </r>
       <r>    -1.8783     0.0000   386.0000 </r>
       <r>    -1.7878     0.0000   386.0000 </r>
       <r>    -1.6974     0.0000   386.0000 </r>
       <r>    -1.6069     0.0000   386.0000 </r>
       <r>    -1.5164     0.0000   386.0000 </r>
       <r>    -1.4259     0.0000   386.0000 </r>
       <r>    -1.3354     0.0297   386.0027 </r>
       <r>    -1.2449    22.0746   388.0000 </r>
       <r>    -1.1545    22.1043   390.0000 </r>
       <r>    -1.0640     0.0000   390.0000 </r>
       <r>    -0.9735     0.0000   390.0000 </r>
       <r>    -0.8830     0.0000   390.0000 </r>
       <r>    -0.7925     0.0000   390.0000 </r>
       <r>    -0.7021     0.0000   390.0000 </r>
       <r>    -0.6116     0.0000   390.0000 </r>
       <r>    -0.5211     0.0000   390.0000 </r>
       <r>    -0.4306     0.0000   390.0000 </r>
       <r>    -0.3401     0.0000   390.0000 </r>
       <r>    -0.2497     0.0000   390.0000 </r>
       <r>    -0.1592     0.0000   390.0000 </r>
       <r>    -0.0687     0.0000   390.0000 </r>
       <r>     0.0218     0.0000   390.0000 </r>
       <r>     0.1123    22.1043   392.0000 </r>
       <r>     0.2027     8.7257   392.7895 </r>
       <r>     0.2932    69.9187   400.3263 </r>
       <r>     0.3837    41.7834   405.9035 </r>
       <r>     0.4742    26.6815   410.4141 </r>
       <r>     0.5647    22.1043   414.0000 </r>
       <r>     0.6551    22.1043   416.0000 </r>
       <r>     0.7456    18.1072   417.6383 </r>
       <r>     0.8361    93.5738   428.4666 </r>
       <r>     0.9266    44.1897   434.0000 </r>
       <r>     1.0171    28.7951   436.6054 </r>
       <r>     1.1075    23.4007   440.1173 </r>
       <r>     1.1980    20.8078   442.0000 </r>
       <r>     1.2885     0.0000   442.0000 </r>
       <r>     1.3790     0.0000   442.0000 </r>
       <r>     1.4695     0.0029   442.0003 </r>
       <r>     1.5599    22.1014   444.0000 </r>
       <r>     1.6504     0.0157   444.0014 </r>
       <r>     1.7409   106.9704   453.6801 </r>
       <r>     1.8314    45.2789   460.0968 </r>
       <r>     1.9219   132.2788   472.0664 </r>
       <r>     2.0123    22.2526   476.0134 </r>
       <r>     2.1028    37.2814   479.3867 </r>
       <r>     2.1933    66.3101   488.0000 </r>
       <r>     2.2838     0.0000   488.0000 </r>
       <r>     2.3743     0.0000   488.0000 </r>
       <r>     2.4647     0.0000   488.0000 </r>
       <r>     2.5552     0.0000   488.0000 </r>
       <r>     2.6457     0.0000   488.0000 </r>
       <r>     2.7362     0.0000   488.0000 </r>
       <r>     2.8267     0.0000   488.0000 </r>
       <r>     2.9171     0.0000   488.0000 </r>
       <r>     3.0076     0.0000   488.0000 </r>
       <r>     3.0981     0.0000   488.0000 </r>
       <r>     3.1886     0.0000   488.0000 </r>
       <r>     3.2791     0.0000   488.0000 </r>
       <r>     3.3695     0.0000   488.0000 </r>
      </set>
     </set>
    </array>
   </total>
  </dos>
 </calculation>
 <structure name="finalpos" >
  <crystal>
   <varray name="basis" >
    <v>      17.59966831       0.00000000       0.00000000 </v>
    <v>      -8.79983416      15.24175986       0.00000000 </v>
    <v>       0.00000000       0.00000000      19.92151445 </v>
   </varray>
   <i name="volume">   5343.94461817 </i>
   <varray name="rec_basis" >
    <v>       0.05681925       0.03280461       0.00000000 </v>
    <v>       0.00000000       0.06560922       0.00000000 </v>
    <v>       0.00000000       0.00000000       0.05019699 </v>
   </varray>
  </crystal>
  <varray name="positions" >
   <v>       0.99980629       0.00005992       0.50037619 </v>
   <v>       0.14164706       0.99871895       0.50000000 </v>
   <v>       0.28492260       0.99841663       0.50000000 </v>
   <v>       0.42850047       0.99871895       0.50000000 </v>
   <v>       0.57205839       0.00005992       0.50000000 </v>
   <v>       0.71530655       0.00214292       0.50000000 </v>
   <v>       0.85826494       0.00214292       0.50000000 </v>
   <v>       0.00080792       0.14408264       0.50000000 </v>
   <v>       0.14259355       0.14244783       0.50000000 </v>
   <v>       0.28470221       0.14112972       0.50000000 </v>
   <v>       0.42785608       0.14112972       0.50000000 </v>
   <v>       0.57128286       0.14244783       0.50000000 </v>
   <v>       0.71470329       0.14408264       0.50000000 </v>
   <v>       0.85805263       0.14467669       0.50000000 </v>
   <v>       0.00095476       0.28713011       0.50000000 </v>
   <v>       0.14372552       0.28645370       0.50000000 </v>
   <v>       0.28540977       0.28469374       0.50000000 </v>
   <v>       0.42724431       0.28306005       0.50000000 </v>
   <v>       0.57071254       0.28469374       0.50000000 </v>
   <v>       0.71415674       0.28645370       0.50000000 </v>
   <v>       0.85760392       0.28713011       0.50000000 </v>
   <v>       0.00054479       0.42966101       0.50000000 </v>
   <v>       0.14422690       0.42957551       0.50000000 </v>
   <v>       0.28730213       0.42918005       0.50000000 </v>
   <v>       0.42797654       0.42569726       0.50000000 </v>
   <v>       0.56914930       0.42569726       0.50000000 </v>
   <v>       0.71330650       0.42918005       0.50000000 </v>
   <v>       0.85677719       0.42957551       0.50000000 </v>
   <v>       0.99928255       0.57181462       0.50000000 </v>
   <v>       0.14396064       0.57181462       0.50000000 </v>
   <v>       0.28862787       0.57181625       0.50000000 </v>
   <v>       0.43313209       0.57215564       0.50000000 </v>
   <v>       0.71045212       0.57215564       0.50000000 </v>
   <v>       0.85461695       0.57181625       0.50000000 </v>
   <v>       0.99707234       0.71370518       0.50000000 </v>
   <v>       0.14255519       0.71368182       0.50000000 </v>
   <v>       0.28806142       0.71370518       0.50000000 </v>
   <v>       0.43464191       0.71382540       0.50000000 </v>
   <v>       0.58510826       0.71626937       0.50000000 </v>
   <v>       0.70258968       0.71626937       0.50000000 </v>
   <v>       0.85061206       0.71382540       0.50000000 </v>
   <v>       0.99777175       0.85613493       0.50000000 </v>
   <v>       0.14160898       0.85591288       0.50000000 </v>
   <v>       0.28573247       0.85591288       0.50000000 </v>
   <v>       0.42979175       0.85613493       0.50000000 </v>
   <v>       0.57342541       0.85758690       0.50000000 </v>
   <v>       0.71640633       0.86138410       0.50000000 </v>
   <v>       0.85559006       0.85758690       0.50000000 </v>
   <v>       0.04754270       0.09547788       0.50000000 </v>
   <v>       0.18957833       0.09405657       0.50000000 </v>
   <v>       0.33254182       0.09365506       0.50000000 </v>
   <v>       0.47590681       0.09405657       0.50000000 </v>
   <v>       0.61936376       0.09547788       0.50000000 </v>
   <v>       0.76280004       0.09719274       0.50000000 </v>
   <v>       0.90582126       0.09719274       0.50000000 </v>
   <v>       0.04854983       0.23934281       0.50000000 </v>
   <v>       0.19048138       0.23782962       0.50000000 </v>
   <v>       0.33234878       0.23634667       0.50000000 </v>
   <v>       0.47542646       0.23634667       0.50000000 </v>
   <v>       0.61877681       0.23782962       0.50000000 </v>
   <v>       0.76222155       0.23934281       0.50000000 </v>
   <v>       0.90562797       0.23982737       0.50000000 </v>
   <v>       0.04871288       0.38232824       0.50000000 </v>
   <v>       0.19188940       0.38184213       0.50000000 </v>
   <v>       0.33352206       0.38013969       0.50000000 </v>
   <v>       0.47472270       0.37801683       0.50000000 </v>
   <v>       0.61804620       0.38013969       0.50000000 </v>
   <v>       0.76138130       0.38184213       0.50000000 </v>
   <v>       0.90504393       0.38232824       0.50000000 </v>
   <v>       0.04810654       0.52478452       0.50000000 </v>
   <v>       0.19263929       0.52476864       0.50000000 </v>
   <v>       0.33696521       0.52455433       0.50000000 </v>
   <v>       0.47833704       0.52146721       0.50000000 </v>
   <v>       0.61455874       0.52146721       0.50000000 </v>
   <v>       0.75901769       0.52455433       0.50000000 </v>
   <v>       0.90355792       0.52476864       0.50000000 </v>
   <v>       0.04642473       0.66685228       0.50000000 </v>
   <v>       0.19185612       0.66685228       0.50000000 </v>
   <v>       0.33777931       0.66688794       0.50000000 </v>
   <v>       0.48615700       0.66710760       0.50000000 </v>
   <v>       0.75237918       0.66710760       0.50000000 </v>
   <v>       0.90053720       0.66688794       0.50000000 </v>
   <v>       0.04582562       0.80879365       0.50000000 </v>
   <v>       0.19009580       0.80876303       0.50000000 </v>
   <v>       0.33439660       0.80879365       0.50000000 </v>
   <v>       0.47844872       0.80897069       0.50000000 </v>
   <v>       0.62209487       0.81129474       0.50000000 </v>
   <v>       0.76062845       0.81129474       0.50000000 </v>
   <v>       0.90195054       0.80897069       0.50000000 </v>
   <v>       0.04629157       0.95154386       0.50000000 </v>
   <v>       0.18948291       0.95113037       0.50000000 </v>
   <v>       0.33307603       0.95113037       0.50000000 </v>
   <v>       0.47668087       0.95154386       0.50000000 </v>
   <v>       0.62015751       0.95313740       0.50000000 </v>
   <v>       0.76355772       0.95568687       0.50000000 </v>
   <v>       0.90440847       0.95313740       0.50000000 </v>
   <v>       0.56830873       0.56518888       0.50000000 </v>
  </varray>
 </structure>
</modeling>
