<?xml version="1.0" encoding="ISO-8859-1"?>
<modeling>
 <generator>
  <i name="program" type="string">vasp </i>
  <i name="version" type="string">5.4.4.18Apr17-6-g9f103f2a35  </i>
  <i name="subversion" type="string">(build Oct 18 2020 22:16:12) gamma-only         parallel </i>
  <i name="platform" type="string">UA-vaughan-2020a </i>
  <i name="date" type="string">2023 03 21 </i>
  <i name="time" type="string">17:26:09 </i>
 </generator>
 <incar>
  <i type="string" name="PREC">accurate</i>
  <i type="int" name="IALGO">    38</i>
  <i type="logical" name="ADDGRID"> T  </i>
  <i type="int" name="NELMIN">     5</i>
  <i type="int" name="IBRION">    -1</i>
  <i name="EDIFF">      0.00000001</i>
  <i name="EDIFFG">     -0.00000001</i>
  <i type="int" name="NSW">     0</i>
  <i type="int" name="ISIF">     2</i>
  <i name="ENCUT">    500.00000000</i>
  <i type="logical" name="LREAL"> F  </i>
  <i type="int" name="ISMEAR">     0</i>
  <i name="SIGMA">      0.01000000</i>
  <i type="logical" name="LWAVE"> F  </i>
  <i type="logical" name="LCHARG"> F  </i>
  <v type="int" name="KPOINT_BSE">    -1     0     0     0</v>
 </incar>
 <structure name="primitive_cell" >
  <crystal>
   <varray name="basis" >
    <v>      17.59966831       0.00000000       0.00000000 </v>
    <v>      -8.79983416      15.24175986       0.00000000 </v>
    <v>       0.00000000       0.00000000      19.92151445 </v>
   </varray>
   <i name="volume">   5343.94461817 </i>
   <varray name="rec_basis" >
    <v>       0.05681925       0.03280461       0.00000000 </v>
    <v>       0.00000000       0.06560922       0.00000000 </v>
    <v>       0.00000000       0.00000000       0.05019699 </v>
   </varray>
  </crystal>
  <varray name="positions" >
   <v>      -0.00056990      -0.00050827      -0.50000000 </v>
   <v>       0.04629157      -0.04845614      -0.50000000 </v>
   <v>      -0.09559153      -0.04686260      -0.50000000 </v>
   <v>       0.04754270       0.09547788      -0.50000000 </v>
   <v>      -0.14173506       0.00214292      -0.50000000 </v>
   <v>      -0.00222825      -0.14386507      -0.50000000 </v>
   <v>       0.14164706      -0.00128105      -0.50000000 </v>
   <v>      -0.14440994      -0.14241310      -0.50000000 </v>
   <v>       0.14259355       0.14244783      -0.50000000 </v>
   <v>       0.00080792       0.14408264      -0.50000000 </v>
   <v>       0.18957833       0.09405657      -0.50000000 </v>
   <v>      -0.09804946      -0.19102931      -0.50000000 </v>
   <v>      -0.09417874       0.09719274      -0.50000000 </v>
   <v>      -0.23644228      -0.04431313      -0.50000000 </v>
   <v>       0.04582562      -0.19120635      -0.50000000 </v>
   <v>      -0.23937155      -0.18870526      -0.50000000 </v>
   <v>       0.18948291      -0.04886963      -0.50000000 </v>
   <v>       0.19048138       0.23782962      -0.50000000 </v>
   <v>       0.04854983       0.23934281      -0.50000000 </v>
   <v>      -0.28359367      -0.13861590      -0.50000000 </v>
   <v>       0.28470221       0.14112972      -0.50000000 </v>
   <v>      -0.14938794      -0.28617460      -0.50000000 </v>
   <v>       0.14160898      -0.14408712      -0.50000000 </v>
   <v>      -0.14194737       0.14467669      -0.50000000 </v>
   <v>       0.14372552       0.28645370      -0.50000000 </v>
   <v>      -0.00292766      -0.28629482      -0.50000000 </v>
   <v>      -0.28469345       0.00214292      -0.50000000 </v>
   <v>       0.28540977       0.28469374      -0.50000000 </v>
   <v>       0.28492260      -0.00158337      -0.50000000 </v>
   <v>       0.00095476       0.28713011      -0.50000000 </v>
   <v>      -0.29741032      -0.28373063      -0.50000000 </v>
   <v>      -0.09946280      -0.33311206      -0.50000000 </v>
   <v>       0.33234878       0.23634667      -0.50000000 </v>
   <v>       0.33254182       0.09365506      -0.50000000 </v>
   <v>      -0.23719996       0.09719274      -0.50000000 </v>
   <v>      -0.09437203       0.23982737      -0.50000000 </v>
   <v>      -0.24762082      -0.33289240      -0.50000000 </v>
   <v>      -0.37790513      -0.18870526      -0.50000000 </v>
   <v>       0.19009580      -0.19123697      -0.50000000 </v>
   <v>       0.19188940       0.38184213      -0.50000000 </v>
   <v>      -0.37984249      -0.04686260      -0.50000000 </v>
   <v>       0.04642473      -0.33314772      -0.50000000 </v>
   <v>       0.33352206       0.38013969      -0.50000000 </v>
   <v>       0.33307603      -0.04886963      -0.50000000 </v>
   <v>       0.04871288       0.38232824      -0.50000000 </v>
   <v>      -0.41489174      -0.28373063      -0.50000000 </v>
   <v>      -0.42657459      -0.14241310      -0.50000000 </v>
   <v>      -0.14538305      -0.42818375      -0.50000000 </v>
   <v>       0.42724431       0.28306005      -0.50000000 </v>
   <v>      -0.28954788      -0.42784436      -0.50000000 </v>
   <v>       0.42785608       0.14112972      -0.50000000 </v>
   <v>       0.14255519      -0.28631818      -0.50000000 </v>
   <v>      -0.28529671       0.14408264      -0.50000000 </v>
   <v>      -0.14239608       0.28713011      -0.50000000 </v>
   <v>       0.14422690       0.42957551      -0.50000000 </v>
   <v>       0.28573247      -0.14408712      -0.50000000 </v>
   <v>       0.28730213       0.42918005      -0.50000000 </v>
   <v>      -0.24098231      -0.47544567      -0.50000000 </v>
   <v>       0.47542646       0.23634667      -0.50000000 </v>
   <v>      -0.23777845       0.23934281      -0.50000000 </v>
   <v>       0.42797654       0.42569726      -0.50000000 </v>
   <v>      -0.00071745      -0.42818538      -0.50000000 </v>
   <v>      -0.42794161       0.00005992      -0.50000000 </v>
   <v>       0.42850047      -0.00128105      -0.50000000 </v>
   <v>       0.00054479       0.42966101      -0.50000000 </v>
   <v>      -0.43169127      -0.43481112      -0.50000000 </v>
   <v>      -0.09644208      -0.47523136      -0.50000000 </v>
   <v>       0.47472270       0.37801683      -0.50000000 </v>
   <v>      -0.38063624       0.09547788      -0.50000000 </v>
   <v>       0.47590681       0.09405657      -0.50000000 </v>
   <v>      -0.09495607       0.38232824      -0.50000000 </v>
   <v>      -0.38544126      -0.47853279      -0.50000000 </v>
   <v>       0.48615700      -0.33289240      -0.50000000 </v>
   <v>       0.47844872      -0.19102931      -0.50000000 </v>
   <v>       0.19185612      -0.33314772      -0.50000000 </v>
   <v>       0.19263929      -0.47523136      -0.50000000 </v>
   <v>       0.33696521      -0.47544567      -0.50000000 </v>
   <v>       0.33439660      -0.19120635      -0.50000000 </v>
   <v>       0.43464191      -0.28617460      -0.50000000 </v>
   <v>      -0.28669350       0.42918005      -0.50000000 </v>
   <v>      -0.42928746       0.28469374      -0.50000000 </v>
   <v>      -0.28584326       0.28645370      -0.50000000 </v>
   <v>       0.28862787      -0.42818375      -0.50000000 </v>
   <v>       0.28806142      -0.28629482      -0.50000000 </v>
   <v>       0.47668087      -0.04845614      -0.50000000 </v>
   <v>       0.04810654      -0.47521548      -0.50000000 </v>
   <v>       0.47833704      -0.47853279      -0.50000000 </v>
   <v>       0.43313209      -0.42784436      -0.50000000 </v>
   <v>       0.42979175      -0.14386507      -0.50000000 </v>
   <v>      -0.43085070       0.42569726      -0.50000000 </v>
   <v>      -0.14322281       0.42957551      -0.50000000 </v>
   <v>      -0.42871714       0.14244783      -0.50000000 </v>
   <v>       0.14396064      -0.42818538      -0.50000000 </v>
   <v>      -0.23861870       0.38184213      -0.50000000 </v>
   <v>      -0.38195380       0.38013969      -0.50000000 </v>
   <v>      -0.38122319       0.23782962      -0.50000000 </v>
   <v>       0.33777931      -0.33311206      -0.50000000 </v>
  </varray>
 </structure>
 <varray name="primitive_index" >
  <v type="int" >        1 </v>
  <v type="int" >       90 </v>
  <v type="int" >       96 </v>
  <v type="int" >       49 </v>
  <v type="int" >        7 </v>
  <v type="int" >       42 </v>
  <v type="int" >        2 </v>
  <v type="int" >       48 </v>
  <v type="int" >        9 </v>
  <v type="int" >        8 </v>
  <v type="int" >       50 </v>
  <v type="int" >       89 </v>
  <v type="int" >       55 </v>
  <v type="int" >       95 </v>
  <v type="int" >       83 </v>
  <v type="int" >       88 </v>
  <v type="int" >       91 </v>
  <v type="int" >       57 </v>
  <v type="int" >       56 </v>
  <v type="int" >       47 </v>
  <v type="int" >       10 </v>
  <v type="int" >       41 </v>
  <v type="int" >       43 </v>
  <v type="int" >       14 </v>
  <v type="int" >       16 </v>
  <v type="int" >       35 </v>
  <v type="int" >        6 </v>
  <v type="int" >       17 </v>
  <v type="int" >        3 </v>
  <v type="int" >       15 </v>
  <v type="int" >       40 </v>
  <v type="int" >       82 </v>
  <v type="int" >       58 </v>
  <v type="int" >       51 </v>
  <v type="int" >       54 </v>
  <v type="int" >       62 </v>
  <v type="int" >       81 </v>
  <v type="int" >       87 </v>
  <v type="int" >       84 </v>
  <v type="int" >       64 </v>
  <v type="int" >       94 </v>
  <v type="int" >       77 </v>
  <v type="int" >       65 </v>
  <v type="int" >       92 </v>
  <v type="int" >       63 </v>
  <v type="int" >       39 </v>
  <v type="int" >       46 </v>
  <v type="int" >       34 </v>
  <v type="int" >       18 </v>
  <v type="int" >       33 </v>
  <v type="int" >       11 </v>
  <v type="int" >       36 </v>
  <v type="int" >       13 </v>
  <v type="int" >       21 </v>
  <v type="int" >       23 </v>
  <v type="int" >       44 </v>
  <v type="int" >       24 </v>
  <v type="int" >       75 </v>
  <v type="int" >       59 </v>
  <v type="int" >       61 </v>
  <v type="int" >       25 </v>
  <v type="int" >       29 </v>
  <v type="int" >        5 </v>
  <v type="int" >        4 </v>
  <v type="int" >       22 </v>
  <v type="int" >       97 </v>
  <v type="int" >       76 </v>
  <v type="int" >       66 </v>
  <v type="int" >       53 </v>
  <v type="int" >       52 </v>
  <v type="int" >       69 </v>
  <v type="int" >       74 </v>
  <v type="int" >       80 </v>
  <v type="int" >       86 </v>
  <v type="int" >       78 </v>
  <v type="int" >       71 </v>
  <v type="int" >       72 </v>
  <v type="int" >       85 </v>
  <v type="int" >       38 </v>
  <v type="int" >       27 </v>
  <v type="int" >       19 </v>
  <v type="int" >       20 </v>
  <v type="int" >       31 </v>
  <v type="int" >       37 </v>
  <v type="int" >       93 </v>
  <v type="int" >       70 </v>
  <v type="int" >       73 </v>
  <v type="int" >       32 </v>
  <v type="int" >       45 </v>
  <v type="int" >       26 </v>
  <v type="int" >       28 </v>
  <v type="int" >       12 </v>
  <v type="int" >       30 </v>
  <v type="int" >       68 </v>
  <v type="int" >       67 </v>
  <v type="int" >       60 </v>
  <v type="int" >       79 </v>
 </varray>
 <kpoints>
  <generation param="Gamma">
   <v type="int" name="divisions">       1        1        1 </v>
   <v name="usershift">      0.00000000       0.00000000       0.00000000 </v>
   <v name="genvec1">      1.00000000      -0.00000000       0.00000000 </v>
   <v name="genvec2">      0.00000000       1.00000000       0.00000000 </v>
   <v name="genvec3">      0.00000000       0.00000000       1.00000000 </v>
   <v name="shift">      0.00000000       0.00000000       0.00000000 </v>
  </generation>
  <varray name="kpointlist" >
   <v>       0.00000000       0.00000000       0.00000000 </v>
  </varray>
  <varray name="weights" >
   <v>       1.00000000 </v>
  </varray>
 </kpoints>
 <parameters>
  <separator name="general" >
   <i type="string" name="SYSTEM">unknown system</i>
   <i type="logical" name="LCOMPAT"> F  </i>
  </separator>
  <separator name="electronic" >
   <i type="string" name="PREC">accura</i>
   <i name="ENMAX">    500.00000000</i>
   <i name="ENAUG">    644.87300000</i>
   <i name="EDIFF">      0.00000001</i>
   <i type="int" name="IALGO">    38</i>
   <i type="int" name="IWAVPR">    10</i>
   <i type="int" name="NBANDS">   244</i>
   <i name="NELECT">    388.00000000</i>
   <i type="int" name="TURBO">     0</i>
   <i type="int" name="IRESTART">     0</i>
   <i type="int" name="NREBOOT">     0</i>
   <i type="int" name="NMIN">     0</i>
   <i name="EREF">      0.00000000</i>
   <separator name="electronic smearing" >
    <i type="int" name="ISMEAR">     0</i>
    <i name="SIGMA">      0.01000000</i>
    <i name="KSPACING">      0.50000000</i>
    <i type="logical" name="KGAMMA"> T  </i>
   </separator>
   <separator name="electronic projectors" >
    <i type="logical" name="LREAL"> F  </i>
    <v name="ROPT">      0.00000000      0.00000000      0.00000000</v>
    <i type="int" name="LMAXPAW">  -100</i>
    <i type="int" name="LMAXMIX">     2</i>
    <i type="logical" name="NLSPLINE"> F  </i>
   </separator>
   <separator name="electronic startup" >
    <i type="int" name="ISTART">     0</i>
    <i type="int" name="ICHARG">     2</i>
    <i type="int" name="INIWAV">     1</i>
   </separator>
   <separator name="electronic spin" >
    <i type="int" name="ISPIN">     1</i>
    <i type="logical" name="LNONCOLLINEAR"> F  </i>
    <v name="MAGMOM">      1.00000000      1.00000000      1.00000000      1.00000000      1.00000000      1.00000000      1.00000000      1.00000000      1.00000000      1.00000000      1.00000000      1.00000000      1.00000000      1.00000000      1.00000000      1.00000000      1.00000000      1.00000000      1.00000000      1.00000000
      1.00000000      1.00000000      1.00000000      1.00000000      1.00000000      1.00000000      1.00000000      1.00000000      1.00000000      1.00000000      1.00000000      1.00000000      1.00000000      1.00000000      1.00000000      1.00000000      1.00000000      1.00000000      1.00000000      1.00000000
      1.00000000      1.00000000      1.00000000      1.00000000      1.00000000      1.00000000      1.00000000      1.00000000      1.00000000      1.00000000      1.00000000      1.00000000      1.00000000      1.00000000      1.00000000      1.00000000      1.00000000      1.00000000      1.00000000      1.00000000
      1.00000000      1.00000000      1.00000000      1.00000000      1.00000000      1.00000000      1.00000000      1.00000000      1.00000000      1.00000000      1.00000000      1.00000000      1.00000000      1.00000000      1.00000000      1.00000000      1.00000000      1.00000000      1.00000000      1.00000000
      1.00000000      1.00000000      1.00000000      1.00000000      1.00000000      1.00000000      1.00000000      1.00000000      1.00000000      1.00000000      1.00000000      1.00000000      1.00000000      1.00000000      1.00000000      1.00000000      1.00000000</v>
    <i name="NUPDOWN">     -1.00000000</i>
    <i type="logical" name="LSORBIT"> F  </i>
    <v name="SAXIS">      0.00000000      0.00000000      1.00000000</v>
    <i type="logical" name="LSPIRAL"> F  </i>
    <v name="QSPIRAL">      0.00000000      0.00000000      0.00000000</v>
    <i type="logical" name="LZEROZ"> F  </i>
   </separator>
   <separator name="electronic exchange-correlation" >
    <i type="logical" name="LASPH"> F  </i>
    <i type="logical" name="LMETAGGA"> F  </i>
   </separator>
   <separator name="electronic convergence" >
    <i type="int" name="NELM">    60</i>
    <i type="int" name="NELMDL">    -5</i>
    <i type="int" name="NELMIN">     5</i>
    <i name="ENINI">    500.00000000</i>
    <separator name="electronic convergence detail" >
     <i type="logical" name="LDIAG"> T  </i>
     <i type="logical" name="LSUBROT"> F  </i>
     <i name="WEIMIN">      0.00000000</i>
     <i name="EBREAK">      0.00000000</i>
     <i name="DEPER">      0.30000000</i>
     <i type="int" name="NRMM">     4</i>
     <i name="TIME">      0.40000000</i>
    </separator>
   </separator>
   <separator name="electronic mixer" >
    <i name="AMIX">      0.40000000</i>
    <i name="BMIX">      1.00000000</i>
    <i name="AMIN">      0.10000000</i>
    <i name="AMIX_MAG">      1.60000000</i>
    <i name="BMIX_MAG">      1.00000000</i>
    <separator name="electronic mixer details" >
     <i type="int" name="IMIX">     4</i>
     <i type="logical" name="MIXFIRST"> F  </i>
     <i type="int" name="MAXMIX">   -45</i>
     <i name="WC">    100.00000000</i>
     <i type="int" name="INIMIX">     1</i>
     <i type="int" name="MIXPRE">     1</i>
     <i type="int" name="MREMOVE">     5</i>
    </separator>
   </separator>
   <separator name="electronic dipolcorrection" >
    <i type="logical" name="LDIPOL"> F  </i>
    <i type="logical" name="LMONO"> F  </i>
    <i type="int" name="IDIPOL">     0</i>
    <i name="EPSILON">      1.00000000</i>
    <v name="DIPOL">   -100.00000000   -100.00000000   -100.00000000</v>
    <i name="EFIELD">      0.00000000</i>
   </separator>
  </separator>
  <separator name="grids" >
   <i type="int" name="NGX">   128</i>
   <i type="int" name="NGY">   128</i>
   <i type="int" name="NGZ">   150</i>
   <i type="int" name="NGXF">   256</i>
   <i type="int" name="NGYF">   256</i>
   <i type="int" name="NGZF">   300</i>
   <i type="logical" name="ADDGRID"> T  </i>
  </separator>
  <separator name="ionic" >
   <i type="int" name="NSW">     0</i>
   <i type="int" name="IBRION">    -1</i>
   <i type="int" name="MDALGO">     0</i>
   <i type="int" name="ISIF">     2</i>
   <i name="PSTRESS">      0.00000000</i>
   <i name="EDIFFG">     -0.00000001</i>
   <i type="int" name="NFREE">     0</i>
   <i name="POTIM">      0.50000000</i>
   <i name="SMASS">     -3.00000000</i>
   <i name="SCALEE">      1.00000000</i>
  </separator>
  <separator name="ionic md" >
   <i name="TEBEG">      0.00010000</i>
   <i name="TEEND">      0.00010000</i>
   <i type="int" name="NBLOCK">     1</i>
   <i type="int" name="KBLOCK">     1</i>
   <i type="int" name="NPACO">   256</i>
   <i name="APACO">     16.00000000</i>
  </separator>
  <separator name="symmetry" >
   <i type="int" name="ISYM">     2</i>
   <i name="SYMPREC">      0.00001000</i>
  </separator>
  <separator name="dos" >
   <i type="int" name="LORBIT">     0</i>
   <v name="RWIGS">     -1.00000000     -1.00000000     -1.00000000</v>
   <i type="int" name="NEDOS">   301</i>
   <i name="EMIN">     10.00000000</i>
   <i name="EMAX">    -10.00000000</i>
   <i name="EFERMI">      0.00000000</i>
  </separator>
  <separator name="writing" >
   <i type="int" name="NWRITE">     2</i>
   <i type="logical" name="LWAVE"> F  </i>
   <i type="logical" name="LDOWNSAMPLE"> F  </i>
   <i type="logical" name="LCHARG"> F  </i>
   <i type="logical" name="LPARD"> F  </i>
   <i type="logical" name="LVTOT"> F  </i>
   <i type="logical" name="LVHAR"> F  </i>
   <i type="logical" name="LELF"> F  </i>
   <i type="logical" name="LOPTICS"> F  </i>
   <v name="STM">      0.00000000      0.00000000      0.00000000      0.00000000      0.00000000      0.00000000      0.00000000</v>
  </separator>
  <separator name="performance" >
   <i type="int" name="NPAR">     4</i>
   <i type="int" name="NSIM">     4</i>
   <i type="int" name="NBLK">    -1</i>
   <i type="logical" name="LPLANE"> T  </i>
   <i type="logical" name="LSCALAPACK"> T  </i>
   <i type="logical" name="LSCAAWARE"> F  </i>
   <i type="logical" name="LSCALU"> F  </i>
   <i type="logical" name="LASYNC"> F  </i>
   <i type="logical" name="LORBITALREAL"> F  </i>
  </separator>
  <separator name="miscellaneous" >
   <i type="int" name="IDIOT">     3</i>
   <i type="int" name="ISPECIAL">     0</i>
   <i type="logical" name="LMUSIC"> F  </i>
   <v name="POMASS">     10.81100000     14.00100000     12.01100000</v>
   <v name="DARWINR">      0.00000000      0.00000000      0.00000000</v>
   <v name="DARWINV">      1.00000000      1.00000000      1.00000000</v>
   <i type="logical" name="LCORR"> T  </i>
  </separator>
  <i type="logical" name="GGA_COMPAT"> T  </i>
  <i type="logical" name="LBERRY"> F  </i>
  <i type="int" name="ICORELEVEL">     0</i>
  <i type="logical" name="LDAU"> F  </i>
  <i type="int" name="I_CONSTRAINED_M">     0</i>
  <separator name="electronic exchange-correlation" >
   <i type="string" name="GGA">--</i>
   <i type="int" name="VOSKOWN">     0</i>
   <i type="logical" name="LHFCALC"> F  </i>
   <i type="string" name="PRECFOCK"></i>
   <i type="logical" name="LSYMGRAD"> F  </i>
   <i type="logical" name="LHFONE"> F  </i>
   <i type="logical" name="LRHFCALC"> F  </i>
   <i type="logical" name="LTHOMAS"> F  </i>
   <i type="logical" name="LMODELHF"> F  </i>
   <i name="ENCUT4O">     -1.00000000</i>
   <i type="int" name="EXXOEP">     0</i>
   <i type="int" name="FOURORBIT">     0</i>
   <i name="AEXX">      0.00000000</i>
   <i name="HFALPHA">      0.00000000</i>
   <i name="MCALPHA">      0.00000000</i>
   <i name="ALDAX">      1.00000000</i>
   <i name="AGGAX">      1.00000000</i>
   <i name="ALDAC">      1.00000000</i>
   <i name="AGGAC">      1.00000000</i>
   <i type="int" name="NKREDX">     1</i>
   <i type="int" name="NKREDY">     1</i>
   <i type="int" name="NKREDZ">     1</i>
   <i type="logical" name="SHIFTRED"> F  </i>
   <i type="logical" name="ODDONLY"> F  </i>
   <i type="logical" name="EVENONLY"> F  </i>
   <i type="int" name="LMAXFOCK">     0</i>
   <i type="int" name="NMAXFOCKAE">     0</i>
   <i type="logical" name="LFOCKAEDFT"> F  </i>
   <i name="HFSCREEN">      0.00000000</i>
   <i name="HFSCREENC">      0.00000000</i>
   <i type="int" name="NBANDSGWLOW">     0</i>
  </separator>
  <separator name="vdW DFT" >
   <i type="logical" name="LUSE_VDW"> F  </i>
   <i name="Zab_VDW">     -0.84910000</i>
   <i name="PARAM1">      0.12340000</i>
   <i name="PARAM2">      1.00000000</i>
   <i name="PARAM3">      0.00000000</i>
  </separator>
  <separator name="model GW" >
   <i type="int" name="MODEL_GW">     0</i>
   <i name="MODEL_EPS0">     33.05532754</i>
   <i name="MODEL_ALPHA">      1.00000000</i>
  </separator>
  <separator name="linear response parameters" >
   <i type="logical" name="LEPSILON"> F  </i>
   <i type="logical" name="LRPA"> F  </i>
   <i type="logical" name="LNABLA"> F  </i>
   <i type="logical" name="LVEL"> F  </i>
   <i type="int" name="KINTER">     0</i>
   <i name="CSHIFT">      0.10000000</i>
   <i name="OMEGAMAX">     -1.00000000</i>
   <i name="DEG_THRESHOLD">      0.00200000</i>
   <i name="RTIME">     -0.10000000</i>
   <i name="WPLASMAI">      0.00000000</i>
   <v name="DFIELD">      0.00000000      0.00000000      0.00000000</v>
   <v name="WPLASMA">      0.00000000      0.00000000      0.00000000      0.00000000      0.00000000      0.00000000      0.00000000      0.00000000      0.00000000</v>
  </separator>
  <separator name="orbital magnetization" >
   <i type="logical" name="NUCIND"> F  </i>
   <v name="MAGPOS">      0.00000000      0.00000000      0.00000000</v>
   <i type="logical" name="LNICSALL"> T  </i>
   <i type="logical" name="ORBITALMAG"> F  </i>
   <i type="logical" name="LMAGBLOCH"> F  </i>
   <i type="logical" name="LCHIMAG"> F  </i>
   <i type="logical" name="LGAUGE"> T  </i>
   <i type="int" name="MAGATOM">     0</i>
   <v name="MAGDIPOL">      0.00000000      0.00000000      0.00000000</v>
   <v name="AVECCONST">      0.00000000      0.00000000      0.00000000</v>
  </separator>
  <separator name="response functions" >
   <i type="logical" name="LADDER"> F  </i>
   <i type="logical" name="LRPAFORCE"> F  </i>
   <i type="logical" name="LFXC"> F  </i>
   <i type="logical" name="LHARTREE"> T  </i>
   <i type="int" name="IBSE">     0</i>
   <v type="int" name="KPOINT">    -1     0     0     0</v>
   <i type="logical" name="LTCTE"> F  </i>
   <i type="logical" name="LTETE"> F  </i>
   <i type="logical" name="LTRIPLET"> F  </i>
   <i type="logical" name="LFXCEPS"> F  </i>
   <i type="logical" name="LFXHEG"> F  </i>
   <i type="int" name="NATURALO">     2</i>
   <i type="logical" name="L2ORDER"> F  </i>
   <i type="logical" name="LMP2LT"> F  </i>
   <i type="logical" name="LUSEW"> F  </i>
   <i name="ENCUTGW">     -2.00000000</i>
   <i name="ENCUTGWSOFT">     -2.00000000</i>
   <i name="ENCUTLF">     -1.00000000</i>
   <i type="int" name="LMAXMP2">    -1</i>
   <i name="SCISSOR">      0.00000000</i>
   <i type="int" name="NOMEGA">     0</i>
   <i type="int" name="NOMEGAR">     0</i>
   <i type="int" name="NBANDSGW">    -1</i>
   <i type="int" name="NBANDSO">    -1</i>
   <i type="int" name="NBANDSV">    -1</i>
   <i type="int" name="NELM">     1</i>
   <i type="int" name="NELMHF">     1</i>
   <i type="int" name="DIM">     3</i>
   <i type="int" name="ANTIRES">     0</i>
   <i name="OMEGAMAX">    -30.00000000</i>
   <i name="OMEGAMIN">    -30.00000000</i>
   <i name="OMEGATL">   -200.00000000</i>
   <i type="int" name="OMEGAGRID">   140</i>
   <i name="CSHIFT">     -0.10000000</i>
   <i type="logical" name="SELFENERGY"> F  </i>
   <i type="logical" name="LSPECTRAL"> F  </i>
   <i type="logical" name="LSPECTRALGW"> F  </i>
   <i type="logical" name="LSINGLES"> F  </i>
   <i type="logical" name="LFERMIGW"> F  </i>
   <i type="logical" name="ODDONLYGW"> F  </i>
   <i type="logical" name="EVENONLYGW"> F  </i>
   <i type="int" name="NKREDLFX">     1</i>
   <i type="int" name="NKREDLFY">     1</i>
   <i type="int" name="NKREDLFZ">     1</i>
   <i type="int" name="MAXMEM">  2800</i>
   <i type="int" name="TELESCOPE">     0</i>
   <i type="int" name="TAUPAR">     1</i>
   <i type="int" name="OMEGAPAR">    -1</i>
   <i name="LAMBDA">      1.00000000</i>
  </separator>
  <separator name="External order field" >
   <i name="OFIELD_KAPPA">      0.00000000</i>
   <v name="OFIELD_K">      0.00000000      0.00000000      0.00000000</v>
   <i name="OFIELD_Q6_NEAR">      0.00000000</i>
   <i name="OFIELD_Q6_FAR">      0.00000000</i>
   <i name="OFIELD_A">      0.00000000</i>
  </separator>
 </parameters>
 <atominfo>
  <atoms>      97 </atoms>
  <types>       3 </types>
  <array name="atoms" >
   <dimension dim="1">ion</dimension>
   <field type="string">element</field>
   <field type="int">atomtype</field>
   <set>
    <rc><c>B </c><c>   1</c></rc>
    <rc><c>B </c><c>   1</c></rc>
    <rc><c>B </c><c>   1</c></rc>
    <rc><c>B </c><c>   1</c></rc>
    <rc><c>B </c><c>   1</c></rc>
    <rc><c>B </c><c>   1</c></rc>
    <rc><c>B </c><c>   1</c></rc>
    <rc><c>B </c><c>   1</c></rc>
    <rc><c>B </c><c>   1</c></rc>
    <rc><c>B </c><c>   1</c></rc>
    <rc><c>B </c><c>   1</c></rc>
    <rc><c>B </c><c>   1</c></rc>
    <rc><c>B </c><c>   1</c></rc>
    <rc><c>B </c><c>   1</c></rc>
    <rc><c>B </c><c>   1</c></rc>
    <rc><c>B </c><c>   1</c></rc>
    <rc><c>B </c><c>   1</c></rc>
    <rc><c>B </c><c>   1</c></rc>
    <rc><c>B </c><c>   1</c></rc>
    <rc><c>B </c><c>   1</c></rc>
    <rc><c>B </c><c>   1</c></rc>
    <rc><c>B </c><c>   1</c></rc>
    <rc><c>B </c><c>   1</c></rc>
    <rc><c>B </c><c>   1</c></rc>
    <rc><c>B </c><c>   1</c></rc>
    <rc><c>B </c><c>   1</c></rc>
    <rc><c>B </c><c>   1</c></rc>
    <rc><c>B </c><c>   1</c></rc>
    <rc><c>B </c><c>   1</c></rc>
    <rc><c>B </c><c>   1</c></rc>
    <rc><c>B </c><c>   1</c></rc>
    <rc><c>B </c><c>   1</c></rc>
    <rc><c>B </c><c>   1</c></rc>
    <rc><c>B </c><c>   1</c></rc>
    <rc><c>B </c><c>   1</c></rc>
    <rc><c>B </c><c>   1</c></rc>
    <rc><c>B </c><c>   1</c></rc>
    <rc><c>B </c><c>   1</c></rc>
    <rc><c>B </c><c>   1</c></rc>
    <rc><c>B </c><c>   1</c></rc>
    <rc><c>B </c><c>   1</c></rc>
    <rc><c>B </c><c>   1</c></rc>
    <rc><c>B </c><c>   1</c></rc>
    <rc><c>B </c><c>   1</c></rc>
    <rc><c>B </c><c>   1</c></rc>
    <rc><c>B </c><c>   1</c></rc>
    <rc><c>B </c><c>   1</c></rc>
    <rc><c>B </c><c>   1</c></rc>
    <rc><c>N </c><c>   2</c></rc>
    <rc><c>N </c><c>   2</c></rc>
    <rc><c>N </c><c>   2</c></rc>
    <rc><c>N </c><c>   2</c></rc>
    <rc><c>N </c><c>   2</c></rc>
    <rc><c>N </c><c>   2</c></rc>
    <rc><c>N </c><c>   2</c></rc>
    <rc><c>N </c><c>   2</c></rc>
    <rc><c>N </c><c>   2</c></rc>
    <rc><c>N </c><c>   2</c></rc>
    <rc><c>N </c><c>   2</c></rc>
    <rc><c>N </c><c>   2</c></rc>
    <rc><c>N </c><c>   2</c></rc>
    <rc><c>N </c><c>   2</c></rc>
    <rc><c>N </c><c>   2</c></rc>
    <rc><c>N </c><c>   2</c></rc>
    <rc><c>N </c><c>   2</c></rc>
    <rc><c>N </c><c>   2</c></rc>
    <rc><c>N </c><c>   2</c></rc>
    <rc><c>N </c><c>   2</c></rc>
    <rc><c>N </c><c>   2</c></rc>
    <rc><c>N </c><c>   2</c></rc>
    <rc><c>N </c><c>   2</c></rc>
    <rc><c>N </c><c>   2</c></rc>
    <rc><c>N </c><c>   2</c></rc>
    <rc><c>N </c><c>   2</c></rc>
    <rc><c>N </c><c>   2</c></rc>
    <rc><c>N </c><c>   2</c></rc>
    <rc><c>N </c><c>   2</c></rc>
    <rc><c>N </c><c>   2</c></rc>
    <rc><c>N </c><c>   2</c></rc>
    <rc><c>N </c><c>   2</c></rc>
    <rc><c>N </c><c>   2</c></rc>
    <rc><c>N </c><c>   2</c></rc>
    <rc><c>N </c><c>   2</c></rc>
    <rc><c>N </c><c>   2</c></rc>
    <rc><c>N </c><c>   2</c></rc>
    <rc><c>N </c><c>   2</c></rc>
    <rc><c>N </c><c>   2</c></rc>
    <rc><c>N </c><c>   2</c></rc>
    <rc><c>N </c><c>   2</c></rc>
    <rc><c>N </c><c>   2</c></rc>
    <rc><c>N </c><c>   2</c></rc>
    <rc><c>N </c><c>   2</c></rc>
    <rc><c>N </c><c>   2</c></rc>
    <rc><c>N </c><c>   2</c></rc>
    <rc><c>N </c><c>   2</c></rc>
    <rc><c>N </c><c>   2</c></rc>
    <rc><c>C </c><c>   3</c></rc>
   </set>
  </array>
  <array name="atomtypes" >
   <dimension dim="1">type</dimension>
   <field type="int">atomspertype</field>
   <field type="string">element</field>
   <field>mass</field>
   <field>valence</field>
   <field type="string">pseudopotential</field>
   <set>
    <rc><c>  48</c><c>B </c><c>     10.81100000</c><c>      3.00000000</c><c>  PAW_PBE B 06Sep2000                   </c></rc>
    <rc><c>  48</c><c>N </c><c>     14.00100000</c><c>      5.00000000</c><c>  PAW_PBE N 08Apr2002                   </c></rc>
    <rc><c>   1</c><c>C </c><c>     12.01100000</c><c>      4.00000000</c><c>  PAW_PBE C 08Apr2002                   </c></rc>
   </set>
  </array>
 </atominfo>
 <structure name="initialpos" >
  <crystal>
   <varray name="basis" >
    <v>      17.59966831       0.00000000       0.00000000 </v>
    <v>      -8.79983416      15.24175986       0.00000000 </v>
    <v>       0.00000000       0.00000000      19.92151445 </v>
   </varray>
   <i name="volume">   5343.94461817 </i>
   <varray name="rec_basis" >
    <v>       0.05681925       0.03280461       0.00000000 </v>
    <v>       0.00000000       0.06560922       0.00000000 </v>
    <v>       0.00000000       0.00000000       0.05019699 </v>
   </varray>
  </crystal>
  <varray name="positions" >
   <v>       0.99943010       0.99949173       0.50000000 </v>
   <v>       0.14164706       0.99871895       0.50000000 </v>
   <v>       0.28492260       0.99841663       0.50000000 </v>
   <v>       0.42850047       0.99871895       0.50000000 </v>
   <v>       0.57205839       0.00005992       0.50000000 </v>
   <v>       0.71530655       0.00214292       0.50000000 </v>
   <v>       0.85826494       0.00214292       0.50000000 </v>
   <v>       0.00080792       0.14408264       0.50000000 </v>
   <v>       0.14259355       0.14244783       0.50000000 </v>
   <v>       0.28470221       0.14112972       0.50000000 </v>
   <v>       0.42785608       0.14112972       0.50000000 </v>
   <v>       0.57128286       0.14244783       0.50000000 </v>
   <v>       0.71470329       0.14408264       0.50000000 </v>
   <v>       0.85805263       0.14467669       0.50000000 </v>
   <v>       0.00095476       0.28713011       0.50000000 </v>
   <v>       0.14372552       0.28645370       0.50000000 </v>
   <v>       0.28540977       0.28469374       0.50000000 </v>
   <v>       0.42724431       0.28306005       0.50000000 </v>
   <v>       0.57071254       0.28469374       0.50000000 </v>
   <v>       0.71415674       0.28645370       0.50000000 </v>
   <v>       0.85760392       0.28713011       0.50000000 </v>
   <v>       0.00054479       0.42966101       0.50000000 </v>
   <v>       0.14422690       0.42957551       0.50000000 </v>
   <v>       0.28730213       0.42918005       0.50000000 </v>
   <v>       0.42797654       0.42569726       0.50000000 </v>
   <v>       0.56914930       0.42569726       0.50000000 </v>
   <v>       0.71330650       0.42918005       0.50000000 </v>
   <v>       0.85677719       0.42957551       0.50000000 </v>
   <v>       0.99928255       0.57181462       0.50000000 </v>
   <v>       0.14396064       0.57181462       0.50000000 </v>
   <v>       0.28862787       0.57181625       0.50000000 </v>
   <v>       0.43313209       0.57215564       0.50000000 </v>
   <v>       0.71045212       0.57215564       0.50000000 </v>
   <v>       0.85461695       0.57181625       0.50000000 </v>
   <v>       0.99707234       0.71370518       0.50000000 </v>
   <v>       0.14255519       0.71368182       0.50000000 </v>
   <v>       0.28806142       0.71370518       0.50000000 </v>
   <v>       0.43464191       0.71382540       0.50000000 </v>
   <v>       0.58510826       0.71626937       0.50000000 </v>
   <v>       0.70258968       0.71626937       0.50000000 </v>
   <v>       0.85061206       0.71382540       0.50000000 </v>
   <v>       0.99777175       0.85613493       0.50000000 </v>
   <v>       0.14160898       0.85591288       0.50000000 </v>
   <v>       0.28573247       0.85591288       0.50000000 </v>
   <v>       0.42979175       0.85613493       0.50000000 </v>
   <v>       0.57342541       0.85758690       0.50000000 </v>
   <v>       0.71640633       0.86138410       0.50000000 </v>
   <v>       0.85559006       0.85758690       0.50000000 </v>
   <v>       0.04754270       0.09547788       0.50000000 </v>
   <v>       0.18957833       0.09405657       0.50000000 </v>
   <v>       0.33254182       0.09365506       0.50000000 </v>
   <v>       0.47590681       0.09405657       0.50000000 </v>
   <v>       0.61936376       0.09547788       0.50000000 </v>
   <v>       0.76280004       0.09719274       0.50000000 </v>
   <v>       0.90582126       0.09719274       0.50000000 </v>
   <v>       0.04854983       0.23934281       0.50000000 </v>
   <v>       0.19048138       0.23782962       0.50000000 </v>
   <v>       0.33234878       0.23634667       0.50000000 </v>
   <v>       0.47542646       0.23634667       0.50000000 </v>
   <v>       0.61877681       0.23782962       0.50000000 </v>
   <v>       0.76222155       0.23934281       0.50000000 </v>
   <v>       0.90562797       0.23982737       0.50000000 </v>
   <v>       0.04871288       0.38232824       0.50000000 </v>
   <v>       0.19188940       0.38184213       0.50000000 </v>
   <v>       0.33352206       0.38013969       0.50000000 </v>
   <v>       0.47472270       0.37801683       0.50000000 </v>
   <v>       0.61804620       0.38013969       0.50000000 </v>
   <v>       0.76138130       0.38184213       0.50000000 </v>
   <v>       0.90504393       0.38232824       0.50000000 </v>
   <v>       0.04810654       0.52478452       0.50000000 </v>
   <v>       0.19263929       0.52476864       0.50000000 </v>
   <v>       0.33696521       0.52455433       0.50000000 </v>
   <v>       0.47833704       0.52146721       0.50000000 </v>
   <v>       0.61455874       0.52146721       0.50000000 </v>
   <v>       0.75901769       0.52455433       0.50000000 </v>
   <v>       0.90355792       0.52476864       0.50000000 </v>
   <v>       0.04642473       0.66685228       0.50000000 </v>
   <v>       0.19185612       0.66685228       0.50000000 </v>
   <v>       0.33777931       0.66688794       0.50000000 </v>
   <v>       0.48615700       0.66710760       0.50000000 </v>
   <v>       0.75237918       0.66710760       0.50000000 </v>
   <v>       0.90053720       0.66688794       0.50000000 </v>
   <v>       0.04582562       0.80879365       0.50000000 </v>
   <v>       0.19009580       0.80876303       0.50000000 </v>
   <v>       0.33439660       0.80879365       0.50000000 </v>
   <v>       0.47844872       0.80897069       0.50000000 </v>
   <v>       0.62209487       0.81129474       0.50000000 </v>
   <v>       0.76062845       0.81129474       0.50000000 </v>
   <v>       0.90195054       0.80897069       0.50000000 </v>
   <v>       0.04629157       0.95154386       0.50000000 </v>
   <v>       0.18948291       0.95113037       0.50000000 </v>
   <v>       0.33307603       0.95113037       0.50000000 </v>
   <v>       0.47668087       0.95154386       0.50000000 </v>
   <v>       0.62015751       0.95313740       0.50000000 </v>
   <v>       0.76355772       0.95568687       0.50000000 </v>
   <v>       0.90440847       0.95313740       0.50000000 </v>
   <v>       0.56830873       0.56518888       0.50000000 </v>
  </varray>
 </structure>
 <calculation>
  <scstep>
   <time name="dav">    2.36    2.38</time>
   <time name="total">    2.73    2.84</time>
   <energy>
    <i name="alphaZ">    156.50993408 </i>
    <i name="ewald">  58206.76172774 </i>
    <i name="hartreedc"> -70374.18094171 </i>
    <i name="XCdc">   1302.10880119 </i>
    <i name="pawpsdc">  12033.28670802 </i>
    <i name="pawaedc"> -12049.96799276 </i>
    <i name="eentropy">     -0.00000000 </i>
    <i name="bandstr">   -904.50007335 </i>
    <i name="atom">  16260.93880140 </i>
    <i name="e_fr_energy">   4630.95696461 </i>
    <i name="e_wo_entrp">   4630.95696461 </i>
    <i name="e_0_energy">   4630.95696461 </i>
   </energy>
  </scstep>
  <scstep>
   <time name="dav">    2.99    3.04</time>
   <time name="total">    2.99    3.04</time>
   <energy>
    <i name="e_fr_energy">    216.90357636 </i>
    <i name="e_wo_entrp">    216.90357636 </i>
    <i name="e_0_energy">    216.90357636 </i>
   </energy>
  </scstep>
  <scstep>
   <time name="dav">    2.48    2.51</time>
   <time name="total">    2.48    2.51</time>
   <energy>
    <i name="e_fr_energy">   -867.43668810 </i>
    <i name="e_wo_entrp">   -867.43668810 </i>
    <i name="e_0_energy">   -867.43668810 </i>
   </energy>
  </scstep>
  <scstep>
   <time name="dav">    2.48    2.51</time>
   <time name="total">    2.48    2.51</time>
   <energy>
    <i name="e_fr_energy">   -934.19539212 </i>
    <i name="e_wo_entrp">   -934.19539212 </i>
    <i name="e_0_energy">   -934.19539212 </i>
   </energy>
  </scstep>
  <scstep>
   <time name="dav">    2.50    2.53</time>
   <time name="total">    2.94    2.98</time>
   <energy>
    <i name="e_fr_energy">   -935.77578234 </i>
    <i name="e_wo_entrp">   -935.77578234 </i>
    <i name="e_0_energy">   -935.77578234 </i>
   </energy>
  </scstep>
  <scstep>
   <time name="dav">    2.34    2.36</time>
   <time name="total">    3.15    3.18</time>
   <energy>
    <i name="e_fr_energy">   -858.72920252 </i>
    <i name="e_wo_entrp">   -858.72920252 </i>
    <i name="e_0_energy">   -858.72920252 </i>
   </energy>
  </scstep>
  <scstep>
   <time name="dav">    2.35    2.37</time>
   <time name="total">    3.16    3.19</time>
   <energy>
    <i name="e_fr_energy">   -850.19304351 </i>
    <i name="e_wo_entrp">   -850.19304351 </i>
    <i name="e_0_energy">   -850.19304351 </i>
   </energy>
  </scstep>
  <scstep>
   <time name="dav">    2.28    2.30</time>
   <time name="total">    3.09    3.12</time>
   <energy>
    <i name="e_fr_energy">   -845.92640067 </i>
    <i name="e_wo_entrp">   -845.92639962 </i>
    <i name="e_0_energy">   -845.92640015 </i>
   </energy>
  </scstep>
  <scstep>
   <time name="dav">    2.30    2.33</time>
   <time name="total">    3.11    3.16</time>
   <energy>
    <i name="e_fr_energy">   -845.80073307 </i>
    <i name="e_wo_entrp">   -845.80073307 </i>
    <i name="e_0_energy">   -845.80073307 </i>
   </energy>
  </scstep>
  <scstep>
   <time name="dav">    2.38    2.40</time>
   <time name="total">    3.19    3.22</time>
   <energy>
    <i name="e_fr_energy">   -845.63949005 </i>
    <i name="e_wo_entrp">   -845.63949005 </i>
    <i name="e_0_energy">   -845.63949005 </i>
   </energy>
  </scstep>
  <scstep>
   <time name="dav">    2.23    2.25</time>
   <time name="total">    3.09    5.22</time>
   <energy>
    <i name="e_fr_energy">   -845.58696672 </i>
    <i name="e_wo_entrp">   -845.58696672 </i>
    <i name="e_0_energy">   -845.58696672 </i>
   </energy>
  </scstep>
  <scstep>
   <time name="dav">    2.25    2.27</time>
   <time name="total">    3.06    3.13</time>
   <energy>
    <i name="e_fr_energy">   -845.57401439 </i>
    <i name="e_wo_entrp">   -845.57401439 </i>
    <i name="e_0_energy">   -845.57401439 </i>
   </energy>
  </scstep>
  <scstep>
   <time name="dav">    2.23    2.25</time>
   <time name="total">    3.05    3.09</time>
   <energy>
    <i name="e_fr_energy">   -845.58457763 </i>
    <i name="e_wo_entrp">   -845.58457763 </i>
    <i name="e_0_energy">   -845.58457763 </i>
   </energy>
  </scstep>
  <scstep>
   <time name="dav">    2.23    2.24</time>
   <time name="total">    3.05    3.08</time>
   <energy>
    <i name="e_fr_energy">   -845.59407611 </i>
    <i name="e_wo_entrp">   -845.59407611 </i>
    <i name="e_0_energy">   -845.59407611 </i>
   </energy>
  </scstep>
  <scstep>
   <time name="dav">    2.19    2.22</time>
   <time name="total">    3.00    3.05</time>
   <energy>
    <i name="e_fr_energy">   -845.62532508 </i>
    <i name="e_wo_entrp">   -845.62532508 </i>
    <i name="e_0_energy">   -845.62532508 </i>
   </energy>
  </scstep>
  <scstep>
   <time name="dav">    2.21    2.22</time>
   <time name="total">    3.02    3.05</time>
   <energy>
    <i name="e_fr_energy">   -845.64173456 </i>
    <i name="e_wo_entrp">   -845.64173456 </i>
    <i name="e_0_energy">   -845.64173456 </i>
   </energy>
  </scstep>
  <scstep>
   <time name="dav">    2.28    2.30</time>
   <time name="total">    3.09    3.12</time>
   <energy>
    <i name="e_fr_energy">   -845.64802529 </i>
    <i name="e_wo_entrp">   -845.64802529 </i>
    <i name="e_0_energy">   -845.64802529 </i>
   </energy>
  </scstep>
  <scstep>
   <time name="dav">    2.21    2.23</time>
   <time name="total">    3.02    3.07</time>
   <energy>
    <i name="e_fr_energy">   -845.65125503 </i>
    <i name="e_wo_entrp">   -845.65125503 </i>
    <i name="e_0_energy">   -845.65125503 </i>
   </energy>
  </scstep>
  <scstep>
   <time name="dav">    2.31    2.33</time>
   <time name="total">    3.12    3.16</time>
   <energy>
    <i name="e_fr_energy">   -845.65227685 </i>
    <i name="e_wo_entrp">   -845.65227685 </i>
    <i name="e_0_energy">   -845.65227685 </i>
   </energy>
  </scstep>
  <scstep>
   <time name="dav">    2.23    2.25</time>
   <time name="total">    3.05    3.08</time>
   <energy>
    <i name="e_fr_energy">   -845.65270441 </i>
    <i name="e_wo_entrp">   -845.65270441 </i>
    <i name="e_0_energy">   -845.65270441 </i>
   </energy>
  </scstep>
  <scstep>
   <time name="dav">    2.25    2.27</time>
   <time name="total">    3.07    3.10</time>
   <energy>
    <i name="e_fr_energy">   -845.65290289 </i>
    <i name="e_wo_entrp">   -845.65290289 </i>
    <i name="e_0_energy">   -845.65290289 </i>
   </energy>
  </scstep>
  <scstep>
   <time name="dav">    2.18    2.20</time>
   <time name="total">    3.00    3.03</time>
   <energy>
    <i name="e_fr_energy">   -845.65301726 </i>
    <i name="e_wo_entrp">   -845.65301726 </i>
    <i name="e_0_energy">   -845.65301726 </i>
   </energy>
  </scstep>
  <scstep>
   <time name="dav">    2.26    2.27</time>
   <time name="total">    3.08    3.11</time>
   <energy>
    <i name="e_fr_energy">   -845.65309523 </i>
    <i name="e_wo_entrp">   -845.65309523 </i>
    <i name="e_0_energy">   -845.65309523 </i>
   </energy>
  </scstep>
  <scstep>
   <time name="dav">    2.28    2.30</time>
   <time name="total">    3.10    3.14</time>
   <energy>
    <i name="e_fr_energy">   -845.65313368 </i>
    <i name="e_wo_entrp">   -845.65313368 </i>
    <i name="e_0_energy">   -845.65313368 </i>
   </energy>
  </scstep>
  <scstep>
   <time name="dav">    2.23    2.25</time>
   <time name="total">    3.06    3.08</time>
   <energy>
    <i name="e_fr_energy">   -845.65315248 </i>
    <i name="e_wo_entrp">   -845.65315248 </i>
    <i name="e_0_energy">   -845.65315248 </i>
   </energy>
  </scstep>
  <scstep>
   <time name="dav">    2.67    2.69</time>
   <time name="total">    3.48    3.53</time>
   <energy>
    <i name="e_fr_energy">   -845.65316883 </i>
    <i name="e_wo_entrp">   -845.65316883 </i>
    <i name="e_0_energy">   -845.65316883 </i>
   </energy>
  </scstep>
  <scstep>
   <time name="dav">    2.15    2.17</time>
   <time name="total">    2.98    3.00</time>
   <energy>
    <i name="e_fr_energy">   -845.65317214 </i>
    <i name="e_wo_entrp">   -845.65317214 </i>
    <i name="e_0_energy">   -845.65317214 </i>
   </energy>
  </scstep>
  <scstep>
   <time name="dav">    1.92    1.94</time>
   <time name="total">    2.76    2.78</time>
   <energy>
    <i name="e_fr_energy">   -845.65317341 </i>
    <i name="e_wo_entrp">   -845.65317341 </i>
    <i name="e_0_energy">   -845.65317341 </i>
   </energy>
  </scstep>
  <scstep>
   <time name="dav">    1.75    1.76</time>
   <time name="total">    2.57    2.60</time>
   <energy>
    <i name="e_fr_energy">   -845.65317368 </i>
    <i name="e_wo_entrp">   -845.65317368 </i>
    <i name="e_0_energy">   -845.65317368 </i>
   </energy>
  </scstep>
  <scstep>
   <time name="dav">    1.68    1.69</time>
   <time name="total">    2.50    2.54</time>
   <energy>
    <i name="e_fr_energy">   -845.65317379 </i>
    <i name="e_wo_entrp">   -845.65317379 </i>
    <i name="e_0_energy">   -845.65317379 </i>
   </energy>
  </scstep>
  <scstep>
   <time name="dav">    1.67    1.68</time>
   <time name="total">    2.49    2.52</time>
   <energy>
    <i name="e_fr_energy">   -845.65317384 </i>
    <i name="e_wo_entrp">   -845.65317384 </i>
    <i name="e_0_energy">   -845.65317384 </i>
   </energy>
  </scstep>
  <scstep>
   <time name="dav">    1.72    1.73</time>
   <time name="total">    2.54    2.57</time>
   <energy>
    <i name="e_fr_energy">   -845.65317387 </i>
    <i name="e_wo_entrp">   -845.65317387 </i>
    <i name="e_0_energy">   -845.65317387 </i>
   </energy>
  </scstep>
  <scstep>
   <time name="dav">    1.82    1.84</time>
   <time name="total">    2.20    2.22</time>
   <energy>
    <i name="alphaZ">    156.50993408 </i>
    <i name="ewald">  58206.76172774 </i>
    <i name="hartreedc"> -72314.26905781 </i>
    <i name="XCdc">   1369.72415702 </i>
    <i name="pawpsdc">  44018.86142419 </i>
    <i name="pawaedc"> -44054.20336703 </i>
    <i name="eentropy">     -0.00000000 </i>
    <i name="bandstr">  -4489.97679346 </i>
    <i name="atom">  16260.93880140 </i>
    <i name="e_fr_energy">   -845.65317388 </i>
    <i name="e_wo_entrp">   -845.65317388 </i>
    <i name="e_0_energy">   -845.65317388 </i>
   </energy>
  </scstep>
  <structure>
   <crystal>
    <varray name="basis" >
     <v>      17.59966831       0.00000000       0.00000000 </v>
     <v>      -8.79983416      15.24175986       0.00000000 </v>
     <v>       0.00000000       0.00000000      19.92151445 </v>
    </varray>
    <i name="volume">   5343.94461817 </i>
    <varray name="rec_basis" >
     <v>       0.05681925       0.03280461       0.00000000 </v>
     <v>       0.00000000       0.06560922       0.00000000 </v>
     <v>       0.00000000       0.00000000       0.05019699 </v>
    </varray>
   </crystal>
   <varray name="positions" >
    <v>       0.99943010       0.99949173       0.50000000 </v>
    <v>       0.14164706       0.99871895       0.50000000 </v>
    <v>       0.28492260       0.99841663       0.50000000 </v>
    <v>       0.42850047       0.99871895       0.50000000 </v>
    <v>       0.57205839       0.00005992       0.50000000 </v>
    <v>       0.71530655       0.00214292       0.50000000 </v>
    <v>       0.85826494       0.00214292       0.50000000 </v>
    <v>       0.00080792       0.14408264       0.50000000 </v>
    <v>       0.14259355       0.14244783       0.50000000 </v>
    <v>       0.28470221       0.14112972       0.50000000 </v>
    <v>       0.42785608       0.14112972       0.50000000 </v>
    <v>       0.57128286       0.14244783       0.50000000 </v>
    <v>       0.71470329       0.14408264       0.50000000 </v>
    <v>       0.85805263       0.14467669       0.50000000 </v>
    <v>       0.00095476       0.28713011       0.50000000 </v>
    <v>       0.14372552       0.28645370       0.50000000 </v>
    <v>       0.28540977       0.28469374       0.50000000 </v>
    <v>       0.42724431       0.28306005       0.50000000 </v>
    <v>       0.57071254       0.28469374       0.50000000 </v>
    <v>       0.71415674       0.28645370       0.50000000 </v>
    <v>       0.85760392       0.28713011       0.50000000 </v>
    <v>       0.00054479       0.42966101       0.50000000 </v>
    <v>       0.14422690       0.42957551       0.50000000 </v>
    <v>       0.28730213       0.42918005       0.50000000 </v>
    <v>       0.42797654       0.42569726       0.50000000 </v>
    <v>       0.56914930       0.42569726       0.50000000 </v>
    <v>       0.71330650       0.42918005       0.50000000 </v>
    <v>       0.85677719       0.42957551       0.50000000 </v>
    <v>       0.99928255       0.57181462       0.50000000 </v>
    <v>       0.14396064       0.57181462       0.50000000 </v>
    <v>       0.28862787       0.57181625       0.50000000 </v>
    <v>       0.43313209       0.57215564       0.50000000 </v>
    <v>       0.71045212       0.57215564       0.50000000 </v>
    <v>       0.85461695       0.57181625       0.50000000 </v>
    <v>       0.99707234       0.71370518       0.50000000 </v>
    <v>       0.14255519       0.71368182       0.50000000 </v>
    <v>       0.28806142       0.71370518       0.50000000 </v>
    <v>       0.43464191       0.71382540       0.50000000 </v>
    <v>       0.58510826       0.71626937       0.50000000 </v>
    <v>       0.70258968       0.71626937       0.50000000 </v>
    <v>       0.85061206       0.71382540       0.50000000 </v>
    <v>       0.99777175       0.85613493       0.50000000 </v>
    <v>       0.14160898       0.85591288       0.50000000 </v>
    <v>       0.28573247       0.85591288       0.50000000 </v>
    <v>       0.42979175       0.85613493       0.50000000 </v>
    <v>       0.57342541       0.85758690       0.50000000 </v>
    <v>       0.71640633       0.86138410       0.50000000 </v>
    <v>       0.85559006       0.85758690       0.50000000 </v>
    <v>       0.04754270       0.09547788       0.50000000 </v>
    <v>       0.18957833       0.09405657       0.50000000 </v>
    <v>       0.33254182       0.09365506       0.50000000 </v>
    <v>       0.47590681       0.09405657       0.50000000 </v>
    <v>       0.61936376       0.09547788       0.50000000 </v>
    <v>       0.76280004       0.09719274       0.50000000 </v>
    <v>       0.90582126       0.09719274       0.50000000 </v>
    <v>       0.04854983       0.23934281       0.50000000 </v>
    <v>       0.19048138       0.23782962       0.50000000 </v>
    <v>       0.33234878       0.23634667       0.50000000 </v>
    <v>       0.47542646       0.23634667       0.50000000 </v>
    <v>       0.61877681       0.23782962       0.50000000 </v>
    <v>       0.76222155       0.23934281       0.50000000 </v>
    <v>       0.90562797       0.23982737       0.50000000 </v>
    <v>       0.04871288       0.38232824       0.50000000 </v>
    <v>       0.19188940       0.38184213       0.50000000 </v>
    <v>       0.33352206       0.38013969       0.50000000 </v>
    <v>       0.47472270       0.37801683       0.50000000 </v>
    <v>       0.61804620       0.38013969       0.50000000 </v>
    <v>       0.76138130       0.38184213       0.50000000 </v>
    <v>       0.90504393       0.38232824       0.50000000 </v>
    <v>       0.04810654       0.52478452       0.50000000 </v>
    <v>       0.19263929       0.52476864       0.50000000 </v>
    <v>       0.33696521       0.52455433       0.50000000 </v>
    <v>       0.47833704       0.52146721       0.50000000 </v>
    <v>       0.61455874       0.52146721       0.50000000 </v>
    <v>       0.75901769       0.52455433       0.50000000 </v>
    <v>       0.90355792       0.52476864       0.50000000 </v>
    <v>       0.04642473       0.66685228       0.50000000 </v>
    <v>       0.19185612       0.66685228       0.50000000 </v>
    <v>       0.33777931       0.66688794       0.50000000 </v>
    <v>       0.48615700       0.66710760       0.50000000 </v>
    <v>       0.75237918       0.66710760       0.50000000 </v>
    <v>       0.90053720       0.66688794       0.50000000 </v>
    <v>       0.04582562       0.80879365       0.50000000 </v>
    <v>       0.19009580       0.80876303       0.50000000 </v>
    <v>       0.33439660       0.80879365       0.50000000 </v>
    <v>       0.47844872       0.80897069       0.50000000 </v>
    <v>       0.62209487       0.81129474       0.50000000 </v>
    <v>       0.76062845       0.81129474       0.50000000 </v>
    <v>       0.90195054       0.80897069       0.50000000 </v>
    <v>       0.04629157       0.95154386       0.50000000 </v>
    <v>       0.18948291       0.95113037       0.50000000 </v>
    <v>       0.33307603       0.95113037       0.50000000 </v>
    <v>       0.47668087       0.95154386       0.50000000 </v>
    <v>       0.62015751       0.95313740       0.50000000 </v>
    <v>       0.76355772       0.95568687       0.50000000 </v>
    <v>       0.90440847       0.95313740       0.50000000 </v>
    <v>       0.56830873       0.56518888       0.50000000 </v>
   </varray>
  </structure>
  <varray name="forces" >
   <v>      -0.29293738       0.39639699       0.00000000 </v>
   <v>       0.00844554       0.02125385       0.00000000 </v>
   <v>       0.00524185      -0.00716340       0.00000000 </v>
   <v>       0.02384214      -0.00834933       0.00000000 </v>
   <v>       0.04075565      -0.02566119       0.00000000 </v>
   <v>      -0.03306938      -0.04674284      -0.00000000 </v>
   <v>       0.04834905      -0.02834317       0.00000000 </v>
   <v>       0.02309290      -0.05962824       0.00000000 </v>
   <v>      -0.06898385      -0.03534657       0.00000000 </v>
   <v>      -0.00821527      -0.03252216       0.00000000 </v>
   <v>       0.00902104      -0.03222066       0.00000000 </v>
   <v>       0.02834951      -0.02521136       0.00000000 </v>
   <v>       0.00786544      -0.02730930       0.00000000 </v>
   <v>       0.00591961      -0.04424235       0.00000000 </v>
   <v>      -0.00349885      -0.03300959       0.00000000 </v>
   <v>       0.00472774      -0.05074540       0.00000000 </v>
   <v>      -0.03818873      -0.00435294       0.00000000 </v>
   <v>      -0.00176838      -0.09428584       0.00000000 </v>
   <v>       0.03080360      -0.00303536       0.00000000 </v>
   <v>      -0.00399347      -0.04537453       0.00000000 </v>
   <v>       0.01153632      -0.03126512       0.00000000 </v>
   <v>       0.00193125       0.00479152       0.00000000 </v>
   <v>      -0.02416842      -0.00389644       0.00000000 </v>
   <v>       0.05555339      -0.14090445       0.00000000 </v>
   <v>      -0.11402070      -0.20118904       0.00000000 </v>
   <v>       0.11113874      -0.20083273       0.00000000 </v>
   <v>      -0.05717851      -0.14003159       0.00000000 </v>
   <v>       0.02661632      -0.00322769       0.00000000 </v>
   <v>       0.01802636       0.02596631      -0.00000000 </v>
   <v>      -0.01568598       0.02675634      -0.00000000 </v>
   <v>      -0.08547856       0.12655974       0.00000000 </v>
   <v>       0.04954214       0.39574236      -0.00000000 </v>
   <v>      -0.05121184       0.39491424       0.00000000 </v>
   <v>       0.08576560       0.12449429      -0.00000000 </v>
   <v>      -0.00796267       0.01592264       0.00000000 </v>
   <v>       0.00187760       0.02522452       0.00000000 </v>
   <v>       0.00973465       0.02139567       0.00000000 </v>
   <v>       0.08675374       0.04267551       0.00000000 </v>
   <v>       1.36374694       1.25064049       0.00000000 </v>
   <v>      -1.36640819       1.25219249       0.00000000 </v>
   <v>      -0.08733045       0.03657258       0.00000000 </v>
   <v>      -0.03341339      -0.05051943      -0.00000000 </v>
   <v>      -0.00692189      -0.00704832      -0.00000000 </v>
   <v>       0.01576808      -0.00401371      -0.00000000 </v>
   <v>       0.04791447      -0.00747357       0.00000000 </v>
   <v>       0.15107528       0.03688270       0.00000000 </v>
   <v>      -0.00055206      -0.25147023       0.00000000 </v>
   <v>      -0.17618953       0.03640417       0.00000000 </v>
   <v>       0.06732291      -0.14527639       0.00000000 </v>
   <v>       0.02132189       0.00422960      -0.00000000 </v>
   <v>      -0.00031999       0.02354638      -0.00000000 </v>
   <v>      -0.01175026       0.02225364      -0.00000000 </v>
   <v>      -0.02802502       0.03162536       0.00000000 </v>
   <v>      -0.01605728       0.02574223       0.00000000 </v>
   <v>      -0.00077238       0.02242862       0.00000000 </v>
   <v>       0.01397662       0.04502656       0.00000000 </v>
   <v>      -0.00035990       0.01423431      -0.00000000 </v>
   <v>       0.01920729       0.03410479       0.00000000 </v>
   <v>      -0.01516580       0.03481359      -0.00000000 </v>
   <v>       0.00788597       0.00335887      -0.00000000 </v>
   <v>      -0.01823290       0.03603746      -0.00000000 </v>
   <v>      -0.00395630       0.03333184       0.00000000 </v>
   <v>       0.00927888       0.02965829      -0.00000000 </v>
   <v>       0.04827384       0.06439838       0.00000000 </v>
   <v>      -0.01924051      -0.19745676       0.00000000 </v>
   <v>       0.00137684       0.11077962      -0.00000000 </v>
   <v>       0.02220061      -0.19933169       0.00000000 </v>
   <v>      -0.04862718       0.06075063      -0.00000000 </v>
   <v>      -0.01284737       0.02831200      -0.00000000 </v>
   <v>      -0.00148007       0.01155590       0.00000000 </v>
   <v>       0.02488418      -0.00448428       0.00000000 </v>
   <v>       0.19070738       0.11465216       0.00000000 </v>
   <v>       1.02411129      -1.56255760       0.00000000 </v>
   <v>      -1.02168916      -1.56296274       0.00000000 </v>
   <v>      -0.18958840       0.11441022       0.00000000 </v>
   <v>      -0.02665908      -0.00457723       0.00000000 </v>
   <v>       0.00776972      -0.02978847       0.00000000 </v>
   <v>      -0.01162627      -0.03102861       0.00000000 </v>
   <v>      -0.05966176      -0.06514966       0.00000000 </v>
   <v>      -0.27014585       0.00979791       0.00000000 </v>
   <v>       0.27343472       0.01126835      -0.00000000 </v>
   <v>       0.05911366      -0.06196017       0.00000000 </v>
   <v>       0.02913632      -0.00596484       0.00000000 </v>
   <v>      -0.00425620      -0.00893349      -0.00000000 </v>
   <v>      -0.03827530      -0.01228374       0.00000000 </v>
   <v>      -0.08600715      -0.01323713      -0.00000000 </v>
   <v>      -0.88590653       0.24345081      -0.00000000 </v>
   <v>       0.88786957       0.23788055       0.00000000 </v>
   <v>       0.09641962      -0.00450744       0.00000000 </v>
   <v>       0.17645238      -0.11405257      -0.00000000 </v>
   <v>      -0.00335050      -0.00525106       0.00000000 </v>
   <v>      -0.01322491      -0.00462109       0.00000000 </v>
   <v>      -0.03322569       0.01663164      -0.00000000 </v>
   <v>      -0.11129865       0.11804545      -0.00000000 </v>
   <v>       0.00364307       0.01171166      -0.00000000 </v>
   <v>       0.15229862       0.04918348       0.00000000 </v>
   <v>      -0.00115247      -0.11916520       0.00000000 </v>
  </varray>
  <varray name="stress" >
   <v>     -10.57421445      -0.01869731       0.00000000 </v>
   <v>      -0.01869732       3.00806713       0.00000000 </v>
   <v>       0.00000000       0.00000000      -0.42556521 </v>
  </varray>
  <energy>
   <i name="e_fr_energy">   -845.65317388 </i>
   <i name="e_wo_entrp">   -845.65317388 </i>
   <i name="e_0_energy">     -0.00000000 </i>
  </energy>
  <time name="totalsc">  104.28  107.72</time>
  <eigenvalues>
   <array>
    <dimension dim="1">band</dimension>
    <dimension dim="2">kpoint</dimension>
    <dimension dim="3">spin</dimension>
    <field>eigene</field>
    <field>occ</field>
    <set>
     <set comment="spin 1">
      <set comment="kpoint 1">
       <r>  -22.5406    1.0000 </r>
       <r>  -22.0195    1.0000 </r>
       <r>  -21.7708    1.0000 </r>
       <r>  -21.7447    1.0000 </r>
       <r>  -21.6966    1.0000 </r>
       <r>  -21.6569    1.0000 </r>
       <r>  -21.6172    1.0000 </r>
       <r>  -21.2368    1.0000 </r>
       <r>  -21.0687    1.0000 </r>
       <r>  -21.0048    1.0000 </r>
       <r>  -20.9708    1.0000 </r>
       <r>  -20.9262    1.0000 </r>
       <r>  -20.8760    1.0000 </r>
       <r>  -20.7421    1.0000 </r>
       <r>  -20.7007    1.0000 </r>
       <r>  -20.6664    1.0000 </r>
       <r>  -20.5945    1.0000 </r>
       <r>  -20.5684    1.0000 </r>
       <r>  -20.4299    1.0000 </r>
       <r>  -19.9809    1.0000 </r>
       <r>  -19.9232    1.0000 </r>
       <r>  -19.8029    1.0000 </r>
       <r>  -19.7616    1.0000 </r>
       <r>  -19.7418    1.0000 </r>
       <r>  -19.7349    1.0000 </r>
       <r>  -19.7071    1.0000 </r>
       <r>  -19.6987    1.0000 </r>
       <r>  -19.6453    1.0000 </r>
       <r>  -19.6369    1.0000 </r>
       <r>  -19.6256    1.0000 </r>
       <r>  -19.4944    1.0000 </r>
       <r>  -19.4107    1.0000 </r>
       <r>  -19.3633    1.0000 </r>
       <r>  -19.3570    1.0000 </r>
       <r>  -19.2882    1.0000 </r>
       <r>  -19.2376    1.0000 </r>
       <r>  -19.1084    1.0000 </r>
       <r>  -19.0020    1.0000 </r>
       <r>  -18.9312    1.0000 </r>
       <r>  -18.8752    1.0000 </r>
       <r>  -18.8554    1.0000 </r>
       <r>  -18.8361    1.0000 </r>
       <r>  -18.7670    1.0000 </r>
       <r>  -18.7481    1.0000 </r>
       <r>  -18.7248    1.0000 </r>
       <r>  -18.7148    1.0000 </r>
       <r>  -18.6942    1.0000 </r>
       <r>  -18.4460    1.0000 </r>
       <r>  -14.1403    1.0000 </r>
       <r>  -13.1836    1.0000 </r>
       <r>  -13.1572    1.0000 </r>
       <r>  -13.1085    1.0000 </r>
       <r>  -13.1025    1.0000 </r>
       <r>  -13.0780    1.0000 </r>
       <r>  -13.0186    1.0000 </r>
       <r>  -12.9601    1.0000 </r>
       <r>  -12.9472    1.0000 </r>
       <r>  -12.9348    1.0000 </r>
       <r>  -12.8059    1.0000 </r>
       <r>  -12.7712    1.0000 </r>
       <r>  -12.6007    1.0000 </r>
       <r>  -12.5026    1.0000 </r>
       <r>  -12.4845    1.0000 </r>
       <r>  -12.3785    1.0000 </r>
       <r>  -12.3079    1.0000 </r>
       <r>  -12.2990    1.0000 </r>
       <r>  -12.1763    1.0000 </r>
       <r>  -11.9000    1.0000 </r>
       <r>  -11.8869    1.0000 </r>
       <r>  -11.7683    1.0000 </r>
       <r>  -11.7646    1.0000 </r>
       <r>  -11.7514    1.0000 </r>
       <r>  -11.7427    1.0000 </r>
       <r>  -11.6921    1.0000 </r>
       <r>  -11.6539    1.0000 </r>
       <r>  -11.6319    1.0000 </r>
       <r>  -11.5411    1.0000 </r>
       <r>  -11.4232    1.0000 </r>
       <r>  -11.2004    1.0000 </r>
       <r>  -11.1218    1.0000 </r>
       <r>  -11.0853    1.0000 </r>
       <r>  -11.0602    1.0000 </r>
       <r>  -10.9640    1.0000 </r>
       <r>  -10.9140    1.0000 </r>
       <r>  -10.6837    1.0000 </r>
       <r>  -10.4641    1.0000 </r>
       <r>  -10.4317    1.0000 </r>
       <r>  -10.3497    1.0000 </r>
       <r>  -10.2533    1.0000 </r>
       <r>  -10.2051    1.0000 </r>
       <r>   -9.8901    1.0000 </r>
       <r>   -9.7691    1.0000 </r>
       <r>   -9.7642    1.0000 </r>
       <r>   -9.7240    1.0000 </r>
       <r>   -9.6747    1.0000 </r>
       <r>   -9.5873    1.0000 </r>
       <r>   -9.5442    1.0000 </r>
       <r>   -9.4996    1.0000 </r>
       <r>   -9.4645    1.0000 </r>
       <r>   -9.3519    1.0000 </r>
       <r>   -9.3454    1.0000 </r>
       <r>   -9.2880    1.0000 </r>
       <r>   -9.2604    1.0000 </r>
       <r>   -9.2552    1.0000 </r>
       <r>   -9.2542    1.0000 </r>
       <r>   -9.2377    1.0000 </r>
       <r>   -9.2241    1.0000 </r>
       <r>   -9.2209    1.0000 </r>
       <r>   -9.2105    1.0000 </r>
       <r>   -9.2019    1.0000 </r>
       <r>   -9.2005    1.0000 </r>
       <r>   -9.1968    1.0000 </r>
       <r>   -9.1542    1.0000 </r>
       <r>   -9.1336    1.0000 </r>
       <r>   -9.1139    1.0000 </r>
       <r>   -9.1062    1.0000 </r>
       <r>   -9.1005    1.0000 </r>
       <r>   -9.0440    1.0000 </r>
       <r>   -8.9934    1.0000 </r>
       <r>   -8.8449    1.0000 </r>
       <r>   -8.7936    1.0000 </r>
       <r>   -8.6534    1.0000 </r>
       <r>   -8.5068    1.0000 </r>
       <r>   -8.4823    1.0000 </r>
       <r>   -8.4431    1.0000 </r>
       <r>   -8.3276    1.0000 </r>
       <r>   -8.2216    1.0000 </r>
       <r>   -8.2010    1.0000 </r>
       <r>   -8.1980    1.0000 </r>
       <r>   -8.1724    1.0000 </r>
       <r>   -8.1491    1.0000 </r>
       <r>   -8.1228    1.0000 </r>
       <r>   -8.0378    1.0000 </r>
       <r>   -7.9720    1.0000 </r>
       <r>   -7.9505    1.0000 </r>
       <r>   -7.8747    1.0000 </r>
       <r>   -7.8508    1.0000 </r>
       <r>   -7.8470    1.0000 </r>
       <r>   -7.8016    1.0000 </r>
       <r>   -7.7970    1.0000 </r>
       <r>   -7.7919    1.0000 </r>
       <r>   -7.7365    1.0000 </r>
       <r>   -7.7356    1.0000 </r>
       <r>   -7.7127    1.0000 </r>
       <r>   -7.6780    1.0000 </r>
       <r>   -7.6727    1.0000 </r>
       <r>   -7.6667    1.0000 </r>
       <r>   -7.6377    1.0000 </r>
       <r>   -7.6328    1.0000 </r>
       <r>   -7.4431    1.0000 </r>
       <r>   -7.4360    1.0000 </r>
       <r>   -7.4260    1.0000 </r>
       <r>   -7.3855    1.0000 </r>
       <r>   -7.3600    1.0000 </r>
       <r>   -7.2747    1.0000 </r>
       <r>   -6.8314    1.0000 </r>
       <r>   -6.7596    1.0000 </r>
       <r>   -6.6215    1.0000 </r>
       <r>   -6.6053    1.0000 </r>
       <r>   -6.5418    1.0000 </r>
       <r>   -6.5334    1.0000 </r>
       <r>   -6.5019    1.0000 </r>
       <r>   -6.4877    1.0000 </r>
       <r>   -6.4580    1.0000 </r>
       <r>   -6.4567    1.0000 </r>
       <r>   -6.4438    1.0000 </r>
       <r>   -6.4388    1.0000 </r>
       <r>   -6.4104    1.0000 </r>
       <r>   -6.4043    1.0000 </r>
       <r>   -6.3604    1.0000 </r>
       <r>   -6.3414    1.0000 </r>
       <r>   -6.3191    1.0000 </r>
       <r>   -6.1111    1.0000 </r>
       <r>   -5.9728    1.0000 </r>
       <r>   -5.9241    1.0000 </r>
       <r>   -5.8855    1.0000 </r>
       <r>   -5.8822    1.0000 </r>
       <r>   -5.8627    1.0000 </r>
       <r>   -5.7810    1.0000 </r>
       <r>   -5.7777    1.0000 </r>
       <r>   -5.5276    1.0000 </r>
       <r>   -5.2209    1.0000 </r>
       <r>   -5.1977    1.0000 </r>
       <r>   -5.1963    1.0000 </r>
       <r>   -5.1419    1.0000 </r>
       <r>   -5.1349    1.0000 </r>
       <r>   -5.1013    1.0000 </r>
       <r>   -5.0005    1.0000 </r>
       <r>   -4.9432    1.0000 </r>
       <r>   -4.9205    1.0000 </r>
       <r>   -4.9030    1.0000 </r>
       <r>   -4.8998    1.0000 </r>
       <r>   -4.7325    1.0000 </r>
       <r>   -1.3156    1.0000 </r>
       <r>   -1.2026    0.0000 </r>
       <r>    0.0586    0.0000 </r>
       <r>    0.2050    0.0000 </r>
       <r>    0.2390    0.0000 </r>
       <r>    0.2596    0.0000 </r>
       <r>    0.2616    0.0000 </r>
       <r>    0.3018    0.0000 </r>
       <r>    0.3062    0.0000 </r>
       <r>    0.3771    0.0000 </r>
       <r>    0.3912    0.0000 </r>
       <r>    0.4361    0.0000 </r>
       <r>    0.4797    0.0000 </r>
       <r>    0.5277    0.0000 </r>
       <r>    0.6094    0.0000 </r>
       <r>    0.7460    0.0000 </r>
       <r>    0.7478    0.0000 </r>
       <r>    0.7788    0.0000 </r>
       <r>    0.8071    0.0000 </r>
       <r>    0.8121    0.0000 </r>
       <r>    0.8308    0.0000 </r>
       <r>    0.8370    0.0000 </r>
       <r>    0.8577    0.0000 </r>
       <r>    0.8723    0.0000 </r>
       <r>    0.9800    0.0000 </r>
       <r>    1.0197    0.0000 </r>
       <r>    1.0595    0.0000 </r>
       <r>    1.1187    0.0000 </r>
       <r>    1.4953    0.0000 </r>
       <r>    1.6731    0.0000 </r>
       <r>    1.6980    0.0000 </r>
       <r>    1.7058    0.0000 </r>
       <r>    1.7241    0.0000 </r>
       <r>    1.7391    0.0000 </r>
       <r>    1.7445    0.0000 </r>
       <r>    1.8048    0.0000 </r>
       <r>    1.8076    0.0000 </r>
       <r>    1.8452    0.0000 </r>
       <r>    1.8475    0.0000 </r>
       <r>    1.8793    0.0000 </r>
       <r>    1.8805    0.0000 </r>
       <r>    1.9075    0.0000 </r>
       <r>    1.9079    0.0000 </r>
       <r>    1.9302    0.0000 </r>
       <r>    1.9820    0.0000 </r>
       <r>    2.0297    0.0000 </r>
       <r>    2.1039    0.0000 </r>
       <r>    2.1070    0.0000 </r>
       <r>    2.1286    0.0000 </r>
       <r>    2.1347    0.0000 </r>
       <r>    2.1404    0.0000 </r>
      </set>
     </set>
    </set>
   </array>
  </eigenvalues>
  <separator name="orbital magnetization" >
   <v name="MAGDIPOLOUT">      0.00000000      0.00000000      0.00000000</v>
  </separator>
  <dos>
   <i name="efermi">     -1.25219327 </i>
   <total>
    <array>
     <dimension dim="1">gridpoints</dimension>
     <dimension dim="2">spin</dimension>
     <field>energy</field>
     <field>total</field>
     <field>integrated</field>
     <set>
      <set comment="spin 1">
       <r>   -23.7747     0.0000     0.0000 </r>
       <r>   -23.6842     0.0000     0.0000 </r>
       <r>   -23.5937     0.0000     0.0000 </r>
       <r>   -23.5032     0.0000     0.0000 </r>
       <r>   -23.4127     0.0000     0.0000 </r>
       <r>   -23.3222     0.0000     0.0000 </r>
       <r>   -23.2317     0.0000     0.0000 </r>
       <r>   -23.1412     0.0000     0.0000 </r>
       <r>   -23.0507     0.0000     0.0000 </r>
       <r>   -22.9602     0.0000     0.0000 </r>
       <r>   -22.8697     0.0000     0.0000 </r>
       <r>   -22.7792     0.0000     0.0000 </r>
       <r>   -22.6887     0.0000     0.0000 </r>
       <r>   -22.5982     0.0000     0.0000 </r>
       <r>   -22.5077    22.1001     2.0000 </r>
       <r>   -22.4172     0.0000     2.0000 </r>
       <r>   -22.3267     0.0000     2.0000 </r>
       <r>   -22.2362     0.0000     2.0000 </r>
       <r>   -22.1457     0.0000     2.0000 </r>
       <r>   -22.0552     0.0000     2.0000 </r>
       <r>   -21.9647    22.1001     4.0000 </r>
       <r>   -21.8743     0.0000     4.0000 </r>
       <r>   -21.7838     0.7393     4.0669 </r>
       <r>   -21.6933    58.5663     9.3670 </r>
       <r>   -21.6028    43.7406    13.9584 </r>
       <r>   -21.5123     0.0000    14.0000 </r>
       <r>   -21.4218     0.0000    14.0000 </r>
       <r>   -21.3313     0.0000    14.0000 </r>
       <r>   -21.2408     6.3601    14.5756 </r>
       <r>   -21.1503     0.0000    16.0000 </r>
       <r>   -21.0598    19.8114    17.7929 </r>
       <r>   -20.9693    35.0149    21.1687 </r>
       <r>   -20.8788    29.7763    24.6947 </r>
       <r>   -20.7883     0.0000    26.0000 </r>
       <r>   -20.6978    36.6871    29.3201 </r>
       <r>   -20.6073    22.8801    32.0706 </r>
       <r>   -20.5168    43.4201    36.0000 </r>
       <r>   -20.4263    15.3408    37.3883 </r>
       <r>   -20.3358     0.0000    38.0000 </r>
       <r>   -20.2453     0.0000    38.0000 </r>
       <r>   -20.1548     0.0000    38.0000 </r>
       <r>   -20.0643     0.0000    38.0000 </r>
       <r>   -19.9738    18.6135    39.6845 </r>
       <r>   -19.8833    22.1001    42.0000 </r>
       <r>   -19.7928    20.3961    43.8458 </r>
       <r>   -19.7023    89.5903    52.1077 </r>
       <r>   -19.6118    65.7286    59.9483 </r>
       <r>   -19.5213     0.0016    60.0001 </r>
       <r>   -19.4308    22.1464    62.0043 </r>
       <r>   -19.3403    66.0359    67.9804 </r>
       <r>   -19.2498    23.0268    70.0839 </r>
       <r>   -19.1593    21.1735    72.0000 </r>
       <r>   -19.0688    22.1001    74.0000 </r>
       <r>   -18.9783    22.0912    75.9992 </r>
       <r>   -18.8878    22.9112    78.0734 </r>
       <r>   -18.7973    65.4895    84.0000 </r>
       <r>   -18.7068    86.1763    91.7987 </r>
       <r>   -18.6163    21.2962    94.0000 </r>
       <r>   -18.5259     0.0000    94.0000 </r>
       <r>   -18.4354    20.6244    95.8665 </r>
       <r>   -18.3449     0.0000    96.0000 </r>
       <r>   -18.2544     0.0000    96.0000 </r>
       <r>   -18.1639     0.0000    96.0000 </r>
       <r>   -18.0734     0.0000    96.0000 </r>
       <r>   -17.9829     0.0000    96.0000 </r>
       <r>   -17.8924     0.0000    96.0000 </r>
       <r>   -17.8019     0.0000    96.0000 </r>
       <r>   -17.7114     0.0000    96.0000 </r>
       <r>   -17.6209     0.0000    96.0000 </r>
       <r>   -17.5304     0.0000    96.0000 </r>
       <r>   -17.4399     0.0000    96.0000 </r>
       <r>   -17.3494     0.0000    96.0000 </r>
       <r>   -17.2589     0.0000    96.0000 </r>
       <r>   -17.1684     0.0000    96.0000 </r>
       <r>   -17.0779     0.0000    96.0000 </r>
       <r>   -16.9874     0.0000    96.0000 </r>
       <r>   -16.8969     0.0000    96.0000 </r>
       <r>   -16.8064     0.0000    96.0000 </r>
       <r>   -16.7159     0.0000    96.0000 </r>
       <r>   -16.6254     0.0000    96.0000 </r>
       <r>   -16.5349     0.0000    96.0000 </r>
       <r>   -16.4444     0.0000    96.0000 </r>
       <r>   -16.3539     0.0000    96.0000 </r>
       <r>   -16.2634     0.0000    96.0000 </r>
       <r>   -16.1729     0.0000    96.0000 </r>
       <r>   -16.0824     0.0000    96.0000 </r>
       <r>   -15.9919     0.0000    96.0000 </r>
       <r>   -15.9014     0.0000    96.0000 </r>
       <r>   -15.8109     0.0000    96.0000 </r>
       <r>   -15.7204     0.0000    96.0000 </r>
       <r>   -15.6299     0.0000    96.0000 </r>
       <r>   -15.5394     0.0000    96.0000 </r>
       <r>   -15.4489     0.0000    96.0000 </r>
       <r>   -15.3584     0.0000    96.0000 </r>
       <r>   -15.2680     0.0000    96.0000 </r>
       <r>   -15.1775     0.0000    96.0000 </r>
       <r>   -15.0870     0.0000    96.0000 </r>
       <r>   -14.9965     0.0000    96.0000 </r>
       <r>   -14.9060     0.0000    96.0000 </r>
       <r>   -14.8155     0.0000    96.0000 </r>
       <r>   -14.7250     0.0000    96.0000 </r>
       <r>   -14.6345     0.0000    96.0000 </r>
       <r>   -14.5440     0.0000    96.0000 </r>
       <r>   -14.4535     0.0000    96.0000 </r>
       <r>   -14.3630     0.0000    96.0000 </r>
       <r>   -14.2725     0.0000    96.0000 </r>
       <r>   -14.1820     0.0000    96.0000 </r>
       <r>   -14.0915    22.1001    98.0000 </r>
       <r>   -14.0010     0.0000    98.0000 </r>
       <r>   -13.9105     0.0000    98.0000 </r>
       <r>   -13.8200     0.0000    98.0000 </r>
       <r>   -13.7295     0.0000    98.0000 </r>
       <r>   -13.6390     0.0000    98.0000 </r>
       <r>   -13.5485     0.0000    98.0000 </r>
       <r>   -13.4580     0.0000    98.0000 </r>
       <r>   -13.3675     0.0000    98.0000 </r>
       <r>   -13.2770     0.0000    98.0000 </r>
       <r>   -13.1865     7.5366    98.6820 </r>
       <r>   -13.0960    61.5827   105.5731 </r>
       <r>   -13.0055    43.3733   109.9361 </r>
       <r>   -12.9150    66.2423   115.9947 </r>
       <r>   -12.8245     0.0936   116.0085 </r>
       <r>   -12.7340    44.1066   120.0000 </r>
       <r>   -12.6435     0.0000   120.0000 </r>
       <r>   -12.5530    22.1001   122.0000 </r>
       <r>   -12.4625    44.1789   125.9981 </r>
       <r>   -12.3720    18.0903   127.6371 </r>
       <r>   -12.2815    44.0479   131.9862 </r>
       <r>   -12.1910     0.4072   132.0369 </r>
       <r>   -12.1005    21.6929   134.0000 </r>
       <r>   -12.0101     0.0000   134.0000 </r>
       <r>   -11.9196     0.0622   134.0056 </r>
       <r>   -11.8291    44.1380   138.0000 </r>
       <r>   -11.7386    81.4756   145.3733 </r>
       <r>   -11.6481    39.9625   149.6165 </r>
       <r>   -11.5576    22.0724   152.0196 </r>
       <r>   -11.4671    21.8833   154.0000 </r>
       <r>   -11.3766    22.1001   156.0000 </r>
       <r>   -11.2861     0.0000   156.0000 </r>
       <r>   -11.1956    16.6525   157.5070 </r>
       <r>   -11.1051    21.9594   159.9873 </r>
       <r>   -11.0146    44.1435   164.0000 </r>
       <r>   -10.9241    23.7915   166.1531 </r>
       <r>   -10.8336     0.0000   168.0000 </r>
       <r>   -10.7431     0.0000   168.0000 </r>
       <r>   -10.6526    22.1000   170.0000 </r>
       <r>   -10.5621     0.0000   170.0000 </r>
       <r>   -10.4716     3.1638   170.2863 </r>
       <r>   -10.3811    22.1002   174.0000 </r>
       <r>   -10.2906    22.1000   176.0000 </r>
       <r>   -10.2001    38.9025   179.5206 </r>
       <r>   -10.1096     0.0000   180.0000 </r>
       <r>   -10.0191     0.0000   180.0000 </r>
       <r>    -9.9286     0.0000   180.0000 </r>
       <r>    -9.8381    22.1001   182.0000 </r>
       <r>    -9.7476    43.9719   185.9793 </r>
       <r>    -9.6571    44.0479   189.9870 </r>
       <r>    -9.5666    22.0784   191.9980 </r>
       <r>    -9.4761    45.2871   196.0999 </r>
       <r>    -9.3856    20.9862   198.0000 </r>
       <r>    -9.2951    47.6892   202.3157 </r>
       <r>    -9.2046   166.8443   219.0990 </r>
       <r>    -9.1141    58.3497   229.2805 </r>
       <r>    -9.0236    43.5694   235.9961 </r>
       <r>    -8.9331    22.0999   238.0000 </r>
       <r>    -8.8426    13.7800   239.2471 </r>
       <r>    -8.7522    22.1001   242.0000 </r>
       <r>    -8.6617     2.7083   242.2451 </r>
       <r>    -8.5712     0.0000   244.0000 </r>
       <r>    -8.4807    35.1965   247.1852 </r>
       <r>    -8.3902    22.1001   250.0000 </r>
       <r>    -8.2997    22.0993   251.9999 </r>
       <r>    -8.2092    25.2300   254.2832 </r>
       <r>    -8.1187    80.9975   263.4430 </r>
       <r>    -8.0282    20.1773   265.8260 </r>
       <r>    -7.9377    43.4265   269.9300 </r>
       <r>    -7.8472    48.3112   274.3720 </r>
       <r>    -7.7567    66.3793   282.0071 </r>
       <r>    -7.6662   117.0723   292.6019 </r>
       <r>    -7.5757    44.1996   298.0000 </r>
       <r>    -7.4852     0.0000   298.0000 </r>
       <r>    -7.3947    68.4541   304.1949 </r>
       <r>    -7.3042    22.1005   308.0000 </r>
       <r>    -7.2137    22.0998   310.0000 </r>
       <r>    -7.1232     0.0000   310.0000 </r>
       <r>    -7.0327     0.0000   310.0000 </r>
       <r>    -6.9422     0.0000   310.0000 </r>
       <r>    -6.8517     0.0456   310.0041 </r>
       <r>    -6.7612    31.0992   312.8185 </r>
       <r>    -6.6707     0.0000   314.0000 </r>
       <r>    -6.5802    44.1960   317.9996 </r>
       <r>    -6.4897    73.9527   324.6925 </r>
       <r>    -6.3992   126.1038   337.4121 </r>
       <r>    -6.3087    64.7341   343.8583 </r>
       <r>    -6.2182     0.0000   344.0000 </r>
       <r>    -6.1277     0.2076   344.0188 </r>
       <r>    -6.0372    21.8925   346.0000 </r>
       <r>    -5.9467    22.1123   348.0011 </r>
       <r>    -5.8562    84.3706   355.6366 </r>
       <r>    -5.7657    42.8415   359.8770 </r>
       <r>    -5.6752     0.0000   360.0000 </r>
       <r>    -5.5847     0.0000   360.0000 </r>
       <r>    -5.4943    22.1001   362.0000 </r>
       <r>    -5.4038     0.0000   362.0000 </r>
       <r>    -5.3133     0.0000   362.0000 </r>
       <r>    -5.2228     8.7517   362.7920 </r>
       <r>    -5.1323    78.6863   371.1215 </r>
       <r>    -5.0418    22.1000   374.0000 </r>
       <r>    -4.9513    24.8884   376.2523 </r>
       <r>    -4.8608    66.3002   384.0000 </r>
       <r>    -4.7703     0.0000   384.0000 </r>
       <r>    -4.6798    22.1001   386.0000 </r>
       <r>    -4.5893     0.0000   386.0000 </r>
       <r>    -4.4988     0.0000   386.0000 </r>
       <r>    -4.4083     0.0000   386.0000 </r>
       <r>    -4.3178     0.0000   386.0000 </r>
       <r>    -4.2273     0.0000   386.0000 </r>
       <r>    -4.1368     0.0000   386.0000 </r>
       <r>    -4.0463     0.0000   386.0000 </r>
       <r>    -3.9558     0.0000   386.0000 </r>
       <r>    -3.8653     0.0000   386.0000 </r>
       <r>    -3.7748     0.0000   386.0000 </r>
       <r>    -3.6843     0.0000   386.0000 </r>
       <r>    -3.5938     0.0000   386.0000 </r>
       <r>    -3.5033     0.0000   386.0000 </r>
       <r>    -3.4128     0.0000   386.0000 </r>
       <r>    -3.3223     0.0000   386.0000 </r>
       <r>    -3.2318     0.0000   386.0000 </r>
       <r>    -3.1413     0.0000   386.0000 </r>
       <r>    -3.0508     0.0000   386.0000 </r>
       <r>    -2.9603     0.0000   386.0000 </r>
       <r>    -2.8698     0.0000   386.0000 </r>
       <r>    -2.7793     0.0000   386.0000 </r>
       <r>    -2.6888     0.0000   386.0000 </r>
       <r>    -2.5983     0.0000   386.0000 </r>
       <r>    -2.5078     0.0000   386.0000 </r>
       <r>    -2.4173     0.0000   386.0000 </r>
       <r>    -2.3268     0.0000   386.0000 </r>
       <r>    -2.2364     0.0000   386.0000 </r>
       <r>    -2.1459     0.0000   386.0000 </r>
       <r>    -2.0554     0.0000   386.0000 </r>
       <r>    -1.9649     0.0000   386.0000 </r>
       <r>    -1.8744     0.0000   386.0000 </r>
       <r>    -1.7839     0.0000   386.0000 </r>
       <r>    -1.6934     0.0000   386.0000 </r>
       <r>    -1.6029     0.0000   386.0000 </r>
       <r>    -1.5124     0.0000   386.0000 </r>
       <r>    -1.4219     0.0000   386.0000 </r>
       <r>    -1.3314     0.2884   386.0261 </r>
       <r>    -1.2409    21.8117   388.0000 </r>
       <r>    -1.1504    22.1001   390.0000 </r>
       <r>    -1.0599     0.0000   390.0000 </r>
       <r>    -0.9694     0.0000   390.0000 </r>
       <r>    -0.8789     0.0000   390.0000 </r>
       <r>    -0.7884     0.0000   390.0000 </r>
       <r>    -0.6979     0.0000   390.0000 </r>
       <r>    -0.6074     0.0000   390.0000 </r>
       <r>    -0.5169     0.0000   390.0000 </r>
       <r>    -0.4264     0.0000   390.0000 </r>
       <r>    -0.3359     0.0000   390.0000 </r>
       <r>    -0.2454     0.0000   390.0000 </r>
       <r>    -0.1549     0.0000   390.0000 </r>
       <r>    -0.0644     0.0000   390.0000 </r>
       <r>     0.0261     0.0000   390.0000 </r>
       <r>     0.1166    22.1001   392.0000 </r>
       <r>     0.2071    13.5426   393.2256 </r>
       <r>     0.2976    74.7998   400.7692 </r>
       <r>     0.3881    28.0674   406.5400 </r>
       <r>     0.4786    31.7097   410.8696 </r>
       <r>     0.5691    22.1001   414.0000 </r>
       <r>     0.6596    22.1001   416.0000 </r>
       <r>     0.7501    29.6506   418.6833 </r>
       <r>     0.8406   102.0195   429.2325 </r>
       <r>     0.9311    44.0289   434.0000 </r>
       <r>     1.0215    35.4028   437.2039 </r>
       <r>     1.1120    25.9076   440.3446 </r>
       <r>     1.2025     0.0000   442.0000 </r>
       <r>     1.2930     0.0000   442.0000 </r>
       <r>     1.3835     0.0000   442.0000 </r>
       <r>     1.4740     0.0293   442.0026 </r>
       <r>     1.5645    22.0708   444.0000 </r>
       <r>     1.6550     0.1152   444.0104 </r>
       <r>     1.7455   118.6614   454.7490 </r>
       <r>     1.8360    47.5175   460.3002 </r>
       <r>     1.9265   115.8232   472.5866 </r>
       <r>     2.0170    22.9137   476.0736 </r>
       <r>     2.1075    48.3886   480.4527 </r>
       <r>     2.1980    66.2673   488.0000 </r>
       <r>     2.2885     0.0000   488.0000 </r>
       <r>     2.3790     0.0000   488.0000 </r>
       <r>     2.4695     0.0000   488.0000 </r>
       <r>     2.5600     0.0000   488.0000 </r>
       <r>     2.6505     0.0000   488.0000 </r>
       <r>     2.7410     0.0000   488.0000 </r>
       <r>     2.8315     0.0000   488.0000 </r>
       <r>     2.9220     0.0000   488.0000 </r>
       <r>     3.0125     0.0000   488.0000 </r>
       <r>     3.1030     0.0000   488.0000 </r>
       <r>     3.1935     0.0000   488.0000 </r>
       <r>     3.2840     0.0000   488.0000 </r>
       <r>     3.3745     0.0000   488.0000 </r>
      </set>
     </set>
    </array>
   </total>
  </dos>
 </calculation>
 <structure name="finalpos" >
  <crystal>
   <varray name="basis" >
    <v>      17.59966831       0.00000000       0.00000000 </v>
    <v>      -8.79983416      15.24175986       0.00000000 </v>
    <v>       0.00000000       0.00000000      19.92151445 </v>
   </varray>
   <i name="volume">   5343.94461817 </i>
   <varray name="rec_basis" >
    <v>       0.05681925       0.03280461       0.00000000 </v>
    <v>       0.00000000       0.06560922       0.00000000 </v>
    <v>       0.00000000       0.00000000       0.05019699 </v>
   </varray>
  </crystal>
  <varray name="positions" >
   <v>       0.99943010       0.99949173       0.50000000 </v>
   <v>       0.14164706       0.99871895       0.50000000 </v>
   <v>       0.28492260       0.99841663       0.50000000 </v>
   <v>       0.42850047       0.99871895       0.50000000 </v>
   <v>       0.57205839       0.00005992       0.50000000 </v>
   <v>       0.71530655       0.00214292       0.50000000 </v>
   <v>       0.85826494       0.00214292       0.50000000 </v>
   <v>       0.00080792       0.14408264       0.50000000 </v>
   <v>       0.14259355       0.14244783       0.50000000 </v>
   <v>       0.28470221       0.14112972       0.50000000 </v>
   <v>       0.42785608       0.14112972       0.50000000 </v>
   <v>       0.57128286       0.14244783       0.50000000 </v>
   <v>       0.71470329       0.14408264       0.50000000 </v>
   <v>       0.85805263       0.14467669       0.50000000 </v>
   <v>       0.00095476       0.28713011       0.50000000 </v>
   <v>       0.14372552       0.28645370       0.50000000 </v>
   <v>       0.28540977       0.28469374       0.50000000 </v>
   <v>       0.42724431       0.28306005       0.50000000 </v>
   <v>       0.57071254       0.28469374       0.50000000 </v>
   <v>       0.71415674       0.28645370       0.50000000 </v>
   <v>       0.85760392       0.28713011       0.50000000 </v>
   <v>       0.00054479       0.42966101       0.50000000 </v>
   <v>       0.14422690       0.42957551       0.50000000 </v>
   <v>       0.28730213       0.42918005       0.50000000 </v>
   <v>       0.42797654       0.42569726       0.50000000 </v>
   <v>       0.56914930       0.42569726       0.50000000 </v>
   <v>       0.71330650       0.42918005       0.50000000 </v>
   <v>       0.85677719       0.42957551       0.50000000 </v>
   <v>       0.99928255       0.57181462       0.50000000 </v>
   <v>       0.14396064       0.57181462       0.50000000 </v>
   <v>       0.28862787       0.57181625       0.50000000 </v>
   <v>       0.43313209       0.57215564       0.50000000 </v>
   <v>       0.71045212       0.57215564       0.50000000 </v>
   <v>       0.85461695       0.57181625       0.50000000 </v>
   <v>       0.99707234       0.71370518       0.50000000 </v>
   <v>       0.14255519       0.71368182       0.50000000 </v>
   <v>       0.28806142       0.71370518       0.50000000 </v>
   <v>       0.43464191       0.71382540       0.50000000 </v>
   <v>       0.58510826       0.71626937       0.50000000 </v>
   <v>       0.70258968       0.71626937       0.50000000 </v>
   <v>       0.85061206       0.71382540       0.50000000 </v>
   <v>       0.99777175       0.85613493       0.50000000 </v>
   <v>       0.14160898       0.85591288       0.50000000 </v>
   <v>       0.28573247       0.85591288       0.50000000 </v>
   <v>       0.42979175       0.85613493       0.50000000 </v>
   <v>       0.57342541       0.85758690       0.50000000 </v>
   <v>       0.71640633       0.86138410       0.50000000 </v>
   <v>       0.85559006       0.85758690       0.50000000 </v>
   <v>       0.04754270       0.09547788       0.50000000 </v>
   <v>       0.18957833       0.09405657       0.50000000 </v>
   <v>       0.33254182       0.09365506       0.50000000 </v>
   <v>       0.47590681       0.09405657       0.50000000 </v>
   <v>       0.61936376       0.09547788       0.50000000 </v>
   <v>       0.76280004       0.09719274       0.50000000 </v>
   <v>       0.90582126       0.09719274       0.50000000 </v>
   <v>       0.04854983       0.23934281       0.50000000 </v>
   <v>       0.19048138       0.23782962       0.50000000 </v>
   <v>       0.33234878       0.23634667       0.50000000 </v>
   <v>       0.47542646       0.23634667       0.50000000 </v>
   <v>       0.61877681       0.23782962       0.50000000 </v>
   <v>       0.76222155       0.23934281       0.50000000 </v>
   <v>       0.90562797       0.23982737       0.50000000 </v>
   <v>       0.04871288       0.38232824       0.50000000 </v>
   <v>       0.19188940       0.38184213       0.50000000 </v>
   <v>       0.33352206       0.38013969       0.50000000 </v>
   <v>       0.47472270       0.37801683       0.50000000 </v>
   <v>       0.61804620       0.38013969       0.50000000 </v>
   <v>       0.76138130       0.38184213       0.50000000 </v>
   <v>       0.90504393       0.38232824       0.50000000 </v>
   <v>       0.04810654       0.52478452       0.50000000 </v>
   <v>       0.19263929       0.52476864       0.50000000 </v>
   <v>       0.33696521       0.52455433       0.50000000 </v>
   <v>       0.47833704       0.52146721       0.50000000 </v>
   <v>       0.61455874       0.52146721       0.50000000 </v>
   <v>       0.75901769       0.52455433       0.50000000 </v>
   <v>       0.90355792       0.52476864       0.50000000 </v>
   <v>       0.04642473       0.66685228       0.50000000 </v>
   <v>       0.19185612       0.66685228       0.50000000 </v>
   <v>       0.33777931       0.66688794       0.50000000 </v>
   <v>       0.48615700       0.66710760       0.50000000 </v>
   <v>       0.75237918       0.66710760       0.50000000 </v>
   <v>       0.90053720       0.66688794       0.50000000 </v>
   <v>       0.04582562       0.80879365       0.50000000 </v>
   <v>       0.19009580       0.80876303       0.50000000 </v>
   <v>       0.33439660       0.80879365       0.50000000 </v>
   <v>       0.47844872       0.80897069       0.50000000 </v>
   <v>       0.62209487       0.81129474       0.50000000 </v>
   <v>       0.76062845       0.81129474       0.50000000 </v>
   <v>       0.90195054       0.80897069       0.50000000 </v>
   <v>       0.04629157       0.95154386       0.50000000 </v>
   <v>       0.18948291       0.95113037       0.50000000 </v>
   <v>       0.33307603       0.95113037       0.50000000 </v>
   <v>       0.47668087       0.95154386       0.50000000 </v>
   <v>       0.62015751       0.95313740       0.50000000 </v>
   <v>       0.76355772       0.95568687       0.50000000 </v>
   <v>       0.90440847       0.95313740       0.50000000 </v>
   <v>       0.56830873       0.56518888       0.50000000 </v>
  </varray>
 </structure>
</modeling>
