<?xml version="1.0" encoding="ISO-8859-1"?>
<modeling>
 <generator>
  <i name="program" type="string">vasp </i>
  <i name="version" type="string">5.4.4.18Apr17-6-g9f103f2a35  </i>
  <i name="subversion" type="string">(build Oct 18 2020 22:16:12) gamma-only         parallel </i>
  <i name="platform" type="string">UA-vaughan-2020a </i>
  <i name="date" type="string">2023 03 22 </i>
  <i name="time" type="string">01:06:39 </i>
 </generator>
 <incar>
  <i type="string" name="PREC">accurate</i>
  <i type="int" name="IALGO">    38</i>
  <i type="logical" name="ADDGRID"> T  </i>
  <i type="int" name="NELMIN">     5</i>
  <i type="int" name="IBRION">    -1</i>
  <i name="EDIFF">      0.00000001</i>
  <i name="EDIFFG">     -0.00000001</i>
  <i type="int" name="NSW">     0</i>
  <i type="int" name="ISIF">     2</i>
  <i name="ENCUT">    500.00000000</i>
  <i type="logical" name="LREAL"> F  </i>
  <i type="int" name="ISMEAR">     0</i>
  <i name="SIGMA">      0.01000000</i>
  <i type="logical" name="LWAVE"> F  </i>
  <i type="logical" name="LCHARG"> F  </i>
  <v type="int" name="KPOINT_BSE">    -1     0     0     0</v>
 </incar>
 <structure name="primitive_cell" >
  <crystal>
   <varray name="basis" >
    <v>      17.59966831       0.00000000       0.00000000 </v>
    <v>      -8.79983416      15.24175986       0.00000000 </v>
    <v>       0.00000000       0.00000000      19.92151445 </v>
   </varray>
   <i name="volume">   5343.94461817 </i>
   <varray name="rec_basis" >
    <v>       0.05681925       0.03280461       0.00000000 </v>
    <v>       0.00000000       0.06560922       0.00000000 </v>
    <v>       0.00000000       0.00000000       0.05019699 </v>
   </varray>
  </crystal>
  <varray name="positions" >
   <v>      -0.00056990       0.00005992      -0.50000000 </v>
   <v>      -0.09559153      -0.04686260      -0.50000000 </v>
   <v>       0.04629157      -0.04845614      -0.50000000 </v>
   <v>       0.04754270       0.09547788      -0.50000000 </v>
   <v>      -0.14173506       0.00214292      -0.50000000 </v>
   <v>       0.14259355       0.14244783      -0.50000000 </v>
   <v>       0.14164706      -0.00128105      -0.50000000 </v>
   <v>      -0.00222825      -0.14386507      -0.50000000 </v>
   <v>      -0.14440994      -0.14241310      -0.50000000 </v>
   <v>       0.00080792       0.14408264      -0.50000000 </v>
   <v>       0.18957833       0.09405657      -0.50000000 </v>
   <v>      -0.09417874       0.09719274      -0.50000000 </v>
   <v>      -0.09804946      -0.19102931      -0.50000000 </v>
   <v>      -0.23644228      -0.04431313      -0.50000000 </v>
   <v>      -0.23937155      -0.18870526      -0.50000000 </v>
   <v>       0.19048138       0.23782962      -0.50000000 </v>
   <v>       0.04582562      -0.19120635      -0.50000000 </v>
   <v>       0.18948291      -0.04886963      -0.50000000 </v>
   <v>       0.04854983       0.23934281      -0.50000000 </v>
   <v>      -0.28359367      -0.13861590      -0.50000000 </v>
   <v>       0.28470221       0.14112972      -0.50000000 </v>
   <v>      -0.14194737       0.14467669      -0.50000000 </v>
   <v>      -0.14938794      -0.28617460      -0.50000000 </v>
   <v>       0.14160898      -0.14408712      -0.50000000 </v>
   <v>       0.14372552       0.28645370      -0.50000000 </v>
   <v>      -0.28469345       0.00214292      -0.50000000 </v>
   <v>      -0.00292766      -0.28629482      -0.50000000 </v>
   <v>       0.28540977       0.28469374      -0.50000000 </v>
   <v>       0.00095476       0.28713011      -0.50000000 </v>
   <v>       0.28492260      -0.00158337      -0.50000000 </v>
   <v>      -0.29741032      -0.28373063      -0.50000000 </v>
   <v>      -0.09946280      -0.33311206      -0.50000000 </v>
   <v>       0.33234878       0.23634667      -0.50000000 </v>
   <v>      -0.23719996       0.09719274      -0.50000000 </v>
   <v>       0.33254182       0.09365506      -0.50000000 </v>
   <v>      -0.09437203       0.23982737      -0.50000000 </v>
   <v>      -0.24762082      -0.33289240      -0.50000000 </v>
   <v>      -0.37790513      -0.18870526      -0.50000000 </v>
   <v>       0.19188940       0.38184213      -0.50000000 </v>
   <v>       0.19009580      -0.19123697      -0.50000000 </v>
   <v>      -0.37984249      -0.04686260      -0.50000000 </v>
   <v>       0.04642473      -0.33314772      -0.50000000 </v>
   <v>       0.33352206       0.38013969      -0.50000000 </v>
   <v>       0.04871288       0.38232824      -0.50000000 </v>
   <v>       0.33307603      -0.04886963      -0.50000000 </v>
   <v>      -0.41489174      -0.28373063      -0.50000000 </v>
   <v>      -0.42657459      -0.14241310      -0.50000000 </v>
   <v>       0.42724431       0.28306005      -0.50000000 </v>
   <v>      -0.14538305      -0.42818375      -0.50000000 </v>
   <v>      -0.28529671       0.14408264      -0.50000000 </v>
   <v>      -0.28954788      -0.42784436      -0.50000000 </v>
   <v>       0.42785608       0.14112972      -0.50000000 </v>
   <v>      -0.14239608       0.28713011      -0.50000000 </v>
   <v>       0.14422690       0.42957551      -0.50000000 </v>
   <v>       0.28730213       0.42918005      -0.50000000 </v>
   <v>       0.14255519      -0.28631818      -0.50000000 </v>
   <v>       0.28573247      -0.14408712      -0.50000000 </v>
   <v>      -0.24098231      -0.47544567      -0.50000000 </v>
   <v>       0.47542646       0.23634667      -0.50000000 </v>
   <v>      -0.23777845       0.23934281      -0.50000000 </v>
   <v>       0.42797654       0.42569726      -0.50000000 </v>
   <v>      -0.42794161       0.00005992      -0.50000000 </v>
   <v>      -0.00071745      -0.42818538      -0.50000000 </v>
   <v>       0.00054479       0.42966101      -0.50000000 </v>
   <v>       0.42850047      -0.00128105      -0.50000000 </v>
   <v>      -0.43169127      -0.43481112      -0.50000000 </v>
   <v>       0.47472270       0.37801683      -0.50000000 </v>
   <v>      -0.09644208      -0.47523136      -0.50000000 </v>
   <v>      -0.38063624       0.09547788      -0.50000000 </v>
   <v>       0.47590681       0.09405657      -0.50000000 </v>
   <v>      -0.09495607       0.38232824      -0.50000000 </v>
   <v>      -0.38544126      -0.47853279      -0.50000000 </v>
   <v>       0.48615700      -0.33289240      -0.50000000 </v>
   <v>       0.47844872      -0.19046112      -0.50000000 </v>
   <v>       0.19263929      -0.47523136      -0.50000000 </v>
   <v>       0.33696521      -0.47544567      -0.50000000 </v>
   <v>       0.19185612      -0.33314772      -0.50000000 </v>
   <v>       0.33439660      -0.19120635      -0.50000000 </v>
   <v>       0.43464191      -0.28617460      -0.50000000 </v>
   <v>      -0.28669350       0.42918005      -0.50000000 </v>
   <v>      -0.42928746       0.28469374      -0.50000000 </v>
   <v>      -0.28584326       0.28645370      -0.50000000 </v>
   <v>       0.28862787      -0.42818375      -0.50000000 </v>
   <v>       0.28806142      -0.28629482      -0.50000000 </v>
   <v>       0.47668087      -0.04845614      -0.50000000 </v>
   <v>       0.47833704      -0.47853279      -0.50000000 </v>
   <v>       0.04810654      -0.47521548      -0.50000000 </v>
   <v>       0.43313209      -0.42784436      -0.50000000 </v>
   <v>       0.42979175      -0.14386507      -0.50000000 </v>
   <v>      -0.43085070       0.42569726      -0.50000000 </v>
   <v>      -0.14322281       0.42957551      -0.50000000 </v>
   <v>      -0.42871714       0.14244783      -0.50000000 </v>
   <v>       0.14396064      -0.42818538      -0.50000000 </v>
   <v>      -0.23861870       0.38184213      -0.50000000 </v>
   <v>      -0.38122319       0.23782962      -0.50000000 </v>
   <v>      -0.38195380       0.38013969      -0.50000000 </v>
   <v>       0.33777931      -0.33311206      -0.50000000 </v>
  </varray>
 </structure>
 <varray name="primitive_index" >
  <v type="int" >        1 </v>
  <v type="int" >       96 </v>
  <v type="int" >       90 </v>
  <v type="int" >       49 </v>
  <v type="int" >        7 </v>
  <v type="int" >        9 </v>
  <v type="int" >        2 </v>
  <v type="int" >       42 </v>
  <v type="int" >       48 </v>
  <v type="int" >        8 </v>
  <v type="int" >       50 </v>
  <v type="int" >       55 </v>
  <v type="int" >       89 </v>
  <v type="int" >       95 </v>
  <v type="int" >       88 </v>
  <v type="int" >       57 </v>
  <v type="int" >       83 </v>
  <v type="int" >       91 </v>
  <v type="int" >       56 </v>
  <v type="int" >       47 </v>
  <v type="int" >       10 </v>
  <v type="int" >       14 </v>
  <v type="int" >       41 </v>
  <v type="int" >       43 </v>
  <v type="int" >       16 </v>
  <v type="int" >        6 </v>
  <v type="int" >       35 </v>
  <v type="int" >       17 </v>
  <v type="int" >       15 </v>
  <v type="int" >        3 </v>
  <v type="int" >       40 </v>
  <v type="int" >       82 </v>
  <v type="int" >       58 </v>
  <v type="int" >       54 </v>
  <v type="int" >       51 </v>
  <v type="int" >       62 </v>
  <v type="int" >       81 </v>
  <v type="int" >       87 </v>
  <v type="int" >       64 </v>
  <v type="int" >       84 </v>
  <v type="int" >       94 </v>
  <v type="int" >       77 </v>
  <v type="int" >       65 </v>
  <v type="int" >       63 </v>
  <v type="int" >       92 </v>
  <v type="int" >       39 </v>
  <v type="int" >       46 </v>
  <v type="int" >       18 </v>
  <v type="int" >       34 </v>
  <v type="int" >       13 </v>
  <v type="int" >       33 </v>
  <v type="int" >       11 </v>
  <v type="int" >       21 </v>
  <v type="int" >       23 </v>
  <v type="int" >       24 </v>
  <v type="int" >       36 </v>
  <v type="int" >       44 </v>
  <v type="int" >       75 </v>
  <v type="int" >       59 </v>
  <v type="int" >       61 </v>
  <v type="int" >       25 </v>
  <v type="int" >        5 </v>
  <v type="int" >       29 </v>
  <v type="int" >       22 </v>
  <v type="int" >        4 </v>
  <v type="int" >       97 </v>
  <v type="int" >       66 </v>
  <v type="int" >       76 </v>
  <v type="int" >       53 </v>
  <v type="int" >       52 </v>
  <v type="int" >       69 </v>
  <v type="int" >       74 </v>
  <v type="int" >       80 </v>
  <v type="int" >       86 </v>
  <v type="int" >       71 </v>
  <v type="int" >       72 </v>
  <v type="int" >       78 </v>
  <v type="int" >       85 </v>
  <v type="int" >       38 </v>
  <v type="int" >       27 </v>
  <v type="int" >       19 </v>
  <v type="int" >       20 </v>
  <v type="int" >       31 </v>
  <v type="int" >       37 </v>
  <v type="int" >       93 </v>
  <v type="int" >       73 </v>
  <v type="int" >       70 </v>
  <v type="int" >       32 </v>
  <v type="int" >       45 </v>
  <v type="int" >       26 </v>
  <v type="int" >       28 </v>
  <v type="int" >       12 </v>
  <v type="int" >       30 </v>
  <v type="int" >       68 </v>
  <v type="int" >       60 </v>
  <v type="int" >       67 </v>
  <v type="int" >       79 </v>
 </varray>
 <kpoints>
  <generation param="Gamma">
   <v type="int" name="divisions">       1        1        1 </v>
   <v name="usershift">      0.00000000       0.00000000       0.00000000 </v>
   <v name="genvec1">      1.00000000      -0.00000000       0.00000000 </v>
   <v name="genvec2">      0.00000000       1.00000000       0.00000000 </v>
   <v name="genvec3">      0.00000000       0.00000000       1.00000000 </v>
   <v name="shift">      0.00000000       0.00000000       0.00000000 </v>
  </generation>
  <varray name="kpointlist" >
   <v>       0.00000000       0.00000000       0.00000000 </v>
  </varray>
  <varray name="weights" >
   <v>       1.00000000 </v>
  </varray>
 </kpoints>
 <parameters>
  <separator name="general" >
   <i type="string" name="SYSTEM">unknown system</i>
   <i type="logical" name="LCOMPAT"> F  </i>
  </separator>
  <separator name="electronic" >
   <i type="string" name="PREC">accura</i>
   <i name="ENMAX">    500.00000000</i>
   <i name="ENAUG">    644.87300000</i>
   <i name="EDIFF">      0.00000001</i>
   <i type="int" name="IALGO">    38</i>
   <i type="int" name="IWAVPR">    10</i>
   <i type="int" name="NBANDS">   244</i>
   <i name="NELECT">    388.00000000</i>
   <i type="int" name="TURBO">     0</i>
   <i type="int" name="IRESTART">     0</i>
   <i type="int" name="NREBOOT">     0</i>
   <i type="int" name="NMIN">     0</i>
   <i name="EREF">      0.00000000</i>
   <separator name="electronic smearing" >
    <i type="int" name="ISMEAR">     0</i>
    <i name="SIGMA">      0.01000000</i>
    <i name="KSPACING">      0.50000000</i>
    <i type="logical" name="KGAMMA"> T  </i>
   </separator>
   <separator name="electronic projectors" >
    <i type="logical" name="LREAL"> F  </i>
    <v name="ROPT">      0.00000000      0.00000000      0.00000000</v>
    <i type="int" name="LMAXPAW">  -100</i>
    <i type="int" name="LMAXMIX">     2</i>
    <i type="logical" name="NLSPLINE"> F  </i>
   </separator>
   <separator name="electronic startup" >
    <i type="int" name="ISTART">     0</i>
    <i type="int" name="ICHARG">     2</i>
    <i type="int" name="INIWAV">     1</i>
   </separator>
   <separator name="electronic spin" >
    <i type="int" name="ISPIN">     1</i>
    <i type="logical" name="LNONCOLLINEAR"> F  </i>
    <v name="MAGMOM">      1.00000000      1.00000000      1.00000000      1.00000000      1.00000000      1.00000000      1.00000000      1.00000000      1.00000000      1.00000000      1.00000000      1.00000000      1.00000000      1.00000000      1.00000000      1.00000000      1.00000000      1.00000000      1.00000000      1.00000000
      1.00000000      1.00000000      1.00000000      1.00000000      1.00000000      1.00000000      1.00000000      1.00000000      1.00000000      1.00000000      1.00000000      1.00000000      1.00000000      1.00000000      1.00000000      1.00000000      1.00000000      1.00000000      1.00000000      1.00000000
      1.00000000      1.00000000      1.00000000      1.00000000      1.00000000      1.00000000      1.00000000      1.00000000      1.00000000      1.00000000      1.00000000      1.00000000      1.00000000      1.00000000      1.00000000      1.00000000      1.00000000      1.00000000      1.00000000      1.00000000
      1.00000000      1.00000000      1.00000000      1.00000000      1.00000000      1.00000000      1.00000000      1.00000000      1.00000000      1.00000000      1.00000000      1.00000000      1.00000000      1.00000000      1.00000000      1.00000000      1.00000000      1.00000000      1.00000000      1.00000000
      1.00000000      1.00000000      1.00000000      1.00000000      1.00000000      1.00000000      1.00000000      1.00000000      1.00000000      1.00000000      1.00000000      1.00000000      1.00000000      1.00000000      1.00000000      1.00000000      1.00000000</v>
    <i name="NUPDOWN">     -1.00000000</i>
    <i type="logical" name="LSORBIT"> F  </i>
    <v name="SAXIS">      0.00000000      0.00000000      1.00000000</v>
    <i type="logical" name="LSPIRAL"> F  </i>
    <v name="QSPIRAL">      0.00000000      0.00000000      0.00000000</v>
    <i type="logical" name="LZEROZ"> F  </i>
   </separator>
   <separator name="electronic exchange-correlation" >
    <i type="logical" name="LASPH"> F  </i>
    <i type="logical" name="LMETAGGA"> F  </i>
   </separator>
   <separator name="electronic convergence" >
    <i type="int" name="NELM">    60</i>
    <i type="int" name="NELMDL">    -5</i>
    <i type="int" name="NELMIN">     5</i>
    <i name="ENINI">    500.00000000</i>
    <separator name="electronic convergence detail" >
     <i type="logical" name="LDIAG"> T  </i>
     <i type="logical" name="LSUBROT"> F  </i>
     <i name="WEIMIN">      0.00000000</i>
     <i name="EBREAK">      0.00000000</i>
     <i name="DEPER">      0.30000000</i>
     <i type="int" name="NRMM">     4</i>
     <i name="TIME">      0.40000000</i>
    </separator>
   </separator>
   <separator name="electronic mixer" >
    <i name="AMIX">      0.40000000</i>
    <i name="BMIX">      1.00000000</i>
    <i name="AMIN">      0.10000000</i>
    <i name="AMIX_MAG">      1.60000000</i>
    <i name="BMIX_MAG">      1.00000000</i>
    <separator name="electronic mixer details" >
     <i type="int" name="IMIX">     4</i>
     <i type="logical" name="MIXFIRST"> F  </i>
     <i type="int" name="MAXMIX">   -45</i>
     <i name="WC">    100.00000000</i>
     <i type="int" name="INIMIX">     1</i>
     <i type="int" name="MIXPRE">     1</i>
     <i type="int" name="MREMOVE">     5</i>
    </separator>
   </separator>
   <separator name="electronic dipolcorrection" >
    <i type="logical" name="LDIPOL"> F  </i>
    <i type="logical" name="LMONO"> F  </i>
    <i type="int" name="IDIPOL">     0</i>
    <i name="EPSILON">      1.00000000</i>
    <v name="DIPOL">   -100.00000000   -100.00000000   -100.00000000</v>
    <i name="EFIELD">      0.00000000</i>
   </separator>
  </separator>
  <separator name="grids" >
   <i type="int" name="NGX">   128</i>
   <i type="int" name="NGY">   128</i>
   <i type="int" name="NGZ">   150</i>
   <i type="int" name="NGXF">   256</i>
   <i type="int" name="NGYF">   256</i>
   <i type="int" name="NGZF">   300</i>
   <i type="logical" name="ADDGRID"> T  </i>
  </separator>
  <separator name="ionic" >
   <i type="int" name="NSW">     0</i>
   <i type="int" name="IBRION">    -1</i>
   <i type="int" name="MDALGO">     0</i>
   <i type="int" name="ISIF">     2</i>
   <i name="PSTRESS">      0.00000000</i>
   <i name="EDIFFG">     -0.00000001</i>
   <i type="int" name="NFREE">     0</i>
   <i name="POTIM">      0.50000000</i>
   <i name="SMASS">     -3.00000000</i>
   <i name="SCALEE">      1.00000000</i>
  </separator>
  <separator name="ionic md" >
   <i name="TEBEG">      0.00010000</i>
   <i name="TEEND">      0.00010000</i>
   <i type="int" name="NBLOCK">     1</i>
   <i type="int" name="KBLOCK">     1</i>
   <i type="int" name="NPACO">   256</i>
   <i name="APACO">     16.00000000</i>
  </separator>
  <separator name="symmetry" >
   <i type="int" name="ISYM">     2</i>
   <i name="SYMPREC">      0.00001000</i>
  </separator>
  <separator name="dos" >
   <i type="int" name="LORBIT">     0</i>
   <v name="RWIGS">     -1.00000000     -1.00000000     -1.00000000</v>
   <i type="int" name="NEDOS">   301</i>
   <i name="EMIN">     10.00000000</i>
   <i name="EMAX">    -10.00000000</i>
   <i name="EFERMI">      0.00000000</i>
  </separator>
  <separator name="writing" >
   <i type="int" name="NWRITE">     2</i>
   <i type="logical" name="LWAVE"> F  </i>
   <i type="logical" name="LDOWNSAMPLE"> F  </i>
   <i type="logical" name="LCHARG"> F  </i>
   <i type="logical" name="LPARD"> F  </i>
   <i type="logical" name="LVTOT"> F  </i>
   <i type="logical" name="LVHAR"> F  </i>
   <i type="logical" name="LELF"> F  </i>
   <i type="logical" name="LOPTICS"> F  </i>
   <v name="STM">      0.00000000      0.00000000      0.00000000      0.00000000      0.00000000      0.00000000      0.00000000</v>
  </separator>
  <separator name="performance" >
   <i type="int" name="NPAR">     4</i>
   <i type="int" name="NSIM">     4</i>
   <i type="int" name="NBLK">    -1</i>
   <i type="logical" name="LPLANE"> T  </i>
   <i type="logical" name="LSCALAPACK"> T  </i>
   <i type="logical" name="LSCAAWARE"> F  </i>
   <i type="logical" name="LSCALU"> F  </i>
   <i type="logical" name="LASYNC"> F  </i>
   <i type="logical" name="LORBITALREAL"> F  </i>
  </separator>
  <separator name="miscellaneous" >
   <i type="int" name="IDIOT">     3</i>
   <i type="int" name="ISPECIAL">     0</i>
   <i type="logical" name="LMUSIC"> F  </i>
   <v name="POMASS">     10.81100000     14.00100000     12.01100000</v>
   <v name="DARWINR">      0.00000000      0.00000000      0.00000000</v>
   <v name="DARWINV">      1.00000000      1.00000000      1.00000000</v>
   <i type="logical" name="LCORR"> T  </i>
  </separator>
  <i type="logical" name="GGA_COMPAT"> T  </i>
  <i type="logical" name="LBERRY"> F  </i>
  <i type="int" name="ICORELEVEL">     0</i>
  <i type="logical" name="LDAU"> F  </i>
  <i type="int" name="I_CONSTRAINED_M">     0</i>
  <separator name="electronic exchange-correlation" >
   <i type="string" name="GGA">--</i>
   <i type="int" name="VOSKOWN">     0</i>
   <i type="logical" name="LHFCALC"> F  </i>
   <i type="string" name="PRECFOCK"></i>
   <i type="logical" name="LSYMGRAD"> F  </i>
   <i type="logical" name="LHFONE"> F  </i>
   <i type="logical" name="LRHFCALC"> F  </i>
   <i type="logical" name="LTHOMAS"> F  </i>
   <i type="logical" name="LMODELHF"> F  </i>
   <i name="ENCUT4O">     -1.00000000</i>
   <i type="int" name="EXXOEP">     0</i>
   <i type="int" name="FOURORBIT">     0</i>
   <i name="AEXX">      0.00000000</i>
   <i name="HFALPHA">      0.00000000</i>
   <i name="MCALPHA">      0.00000000</i>
   <i name="ALDAX">      1.00000000</i>
   <i name="AGGAX">      1.00000000</i>
   <i name="ALDAC">      1.00000000</i>
   <i name="AGGAC">      1.00000000</i>
   <i type="int" name="NKREDX">     1</i>
   <i type="int" name="NKREDY">     1</i>
   <i type="int" name="NKREDZ">     1</i>
   <i type="logical" name="SHIFTRED"> F  </i>
   <i type="logical" name="ODDONLY"> F  </i>
   <i type="logical" name="EVENONLY"> F  </i>
   <i type="int" name="LMAXFOCK">     0</i>
   <i type="int" name="NMAXFOCKAE">     0</i>
   <i type="logical" name="LFOCKAEDFT"> F  </i>
   <i name="HFSCREEN">      0.00000000</i>
   <i name="HFSCREENC">      0.00000000</i>
   <i type="int" name="NBANDSGWLOW">     0</i>
  </separator>
  <separator name="vdW DFT" >
   <i type="logical" name="LUSE_VDW"> F  </i>
   <i name="Zab_VDW">     -0.84910000</i>
   <i name="PARAM1">      0.12340000</i>
   <i name="PARAM2">      1.00000000</i>
   <i name="PARAM3">      0.00000000</i>
  </separator>
  <separator name="model GW" >
   <i type="int" name="MODEL_GW">     0</i>
   <i name="MODEL_EPS0">     33.05532754</i>
   <i name="MODEL_ALPHA">      1.00000000</i>
  </separator>
  <separator name="linear response parameters" >
   <i type="logical" name="LEPSILON"> F  </i>
   <i type="logical" name="LRPA"> F  </i>
   <i type="logical" name="LNABLA"> F  </i>
   <i type="logical" name="LVEL"> F  </i>
   <i type="int" name="KINTER">     0</i>
   <i name="CSHIFT">      0.10000000</i>
   <i name="OMEGAMAX">     -1.00000000</i>
   <i name="DEG_THRESHOLD">      0.00200000</i>
   <i name="RTIME">     -0.10000000</i>
   <i name="WPLASMAI">      0.00000000</i>
   <v name="DFIELD">      0.00000000      0.00000000      0.00000000</v>
   <v name="WPLASMA">      0.00000000      0.00000000      0.00000000      0.00000000      0.00000000      0.00000000      0.00000000      0.00000000      0.00000000</v>
  </separator>
  <separator name="orbital magnetization" >
   <i type="logical" name="NUCIND"> F  </i>
   <v name="MAGPOS">      0.00000000      0.00000000      0.00000000</v>
   <i type="logical" name="LNICSALL"> T  </i>
   <i type="logical" name="ORBITALMAG"> F  </i>
   <i type="logical" name="LMAGBLOCH"> F  </i>
   <i type="logical" name="LCHIMAG"> F  </i>
   <i type="logical" name="LGAUGE"> T  </i>
   <i type="int" name="MAGATOM">     0</i>
   <v name="MAGDIPOL">      0.00000000      0.00000000      0.00000000</v>
   <v name="AVECCONST">      0.00000000      0.00000000      0.00000000</v>
  </separator>
  <separator name="response functions" >
   <i type="logical" name="LADDER"> F  </i>
   <i type="logical" name="LRPAFORCE"> F  </i>
   <i type="logical" name="LFXC"> F  </i>
   <i type="logical" name="LHARTREE"> T  </i>
   <i type="int" name="IBSE">     0</i>
   <v type="int" name="KPOINT">    -1     0     0     0</v>
   <i type="logical" name="LTCTE"> F  </i>
   <i type="logical" name="LTETE"> F  </i>
   <i type="logical" name="LTRIPLET"> F  </i>
   <i type="logical" name="LFXCEPS"> F  </i>
   <i type="logical" name="LFXHEG"> F  </i>
   <i type="int" name="NATURALO">     2</i>
   <i type="logical" name="L2ORDER"> F  </i>
   <i type="logical" name="LMP2LT"> F  </i>
   <i type="logical" name="LUSEW"> F  </i>
   <i name="ENCUTGW">     -2.00000000</i>
   <i name="ENCUTGWSOFT">     -2.00000000</i>
   <i name="ENCUTLF">     -1.00000000</i>
   <i type="int" name="LMAXMP2">    -1</i>
   <i name="SCISSOR">      0.00000000</i>
   <i type="int" name="NOMEGA">     0</i>
   <i type="int" name="NOMEGAR">     0</i>
   <i type="int" name="NBANDSGW">    -1</i>
   <i type="int" name="NBANDSO">    -1</i>
   <i type="int" name="NBANDSV">    -1</i>
   <i type="int" name="NELM">     1</i>
   <i type="int" name="NELMHF">     1</i>
   <i type="int" name="DIM">     3</i>
   <i type="int" name="ANTIRES">     0</i>
   <i name="OMEGAMAX">    -30.00000000</i>
   <i name="OMEGAMIN">    -30.00000000</i>
   <i name="OMEGATL">   -200.00000000</i>
   <i type="int" name="OMEGAGRID">   140</i>
   <i name="CSHIFT">     -0.10000000</i>
   <i type="logical" name="SELFENERGY"> F  </i>
   <i type="logical" name="LSPECTRAL"> F  </i>
   <i type="logical" name="LSPECTRALGW"> F  </i>
   <i type="logical" name="LSINGLES"> F  </i>
   <i type="logical" name="LFERMIGW"> F  </i>
   <i type="logical" name="ODDONLYGW"> F  </i>
   <i type="logical" name="EVENONLYGW"> F  </i>
   <i type="int" name="NKREDLFX">     1</i>
   <i type="int" name="NKREDLFY">     1</i>
   <i type="int" name="NKREDLFZ">     1</i>
   <i type="int" name="MAXMEM">  2800</i>
   <i type="int" name="TELESCOPE">     0</i>
   <i type="int" name="TAUPAR">     1</i>
   <i type="int" name="OMEGAPAR">    -1</i>
   <i name="LAMBDA">      1.00000000</i>
  </separator>
  <separator name="External order field" >
   <i name="OFIELD_KAPPA">      0.00000000</i>
   <v name="OFIELD_K">      0.00000000      0.00000000      0.00000000</v>
   <i name="OFIELD_Q6_NEAR">      0.00000000</i>
   <i name="OFIELD_Q6_FAR">      0.00000000</i>
   <i name="OFIELD_A">      0.00000000</i>
  </separator>
 </parameters>
 <atominfo>
  <atoms>      97 </atoms>
  <types>       3 </types>
  <array name="atoms" >
   <dimension dim="1">ion</dimension>
   <field type="string">element</field>
   <field type="int">atomtype</field>
   <set>
    <rc><c>B </c><c>   1</c></rc>
    <rc><c>B </c><c>   1</c></rc>
    <rc><c>B </c><c>   1</c></rc>
    <rc><c>B </c><c>   1</c></rc>
    <rc><c>B </c><c>   1</c></rc>
    <rc><c>B </c><c>   1</c></rc>
    <rc><c>B </c><c>   1</c></rc>
    <rc><c>B </c><c>   1</c></rc>
    <rc><c>B </c><c>   1</c></rc>
    <rc><c>B </c><c>   1</c></rc>
    <rc><c>B </c><c>   1</c></rc>
    <rc><c>B </c><c>   1</c></rc>
    <rc><c>B </c><c>   1</c></rc>
    <rc><c>B </c><c>   1</c></rc>
    <rc><c>B </c><c>   1</c></rc>
    <rc><c>B </c><c>   1</c></rc>
    <rc><c>B </c><c>   1</c></rc>
    <rc><c>B </c><c>   1</c></rc>
    <rc><c>B </c><c>   1</c></rc>
    <rc><c>B </c><c>   1</c></rc>
    <rc><c>B </c><c>   1</c></rc>
    <rc><c>B </c><c>   1</c></rc>
    <rc><c>B </c><c>   1</c></rc>
    <rc><c>B </c><c>   1</c></rc>
    <rc><c>B </c><c>   1</c></rc>
    <rc><c>B </c><c>   1</c></rc>
    <rc><c>B </c><c>   1</c></rc>
    <rc><c>B </c><c>   1</c></rc>
    <rc><c>B </c><c>   1</c></rc>
    <rc><c>B </c><c>   1</c></rc>
    <rc><c>B </c><c>   1</c></rc>
    <rc><c>B </c><c>   1</c></rc>
    <rc><c>B </c><c>   1</c></rc>
    <rc><c>B </c><c>   1</c></rc>
    <rc><c>B </c><c>   1</c></rc>
    <rc><c>B </c><c>   1</c></rc>
    <rc><c>B </c><c>   1</c></rc>
    <rc><c>B </c><c>   1</c></rc>
    <rc><c>B </c><c>   1</c></rc>
    <rc><c>B </c><c>   1</c></rc>
    <rc><c>B </c><c>   1</c></rc>
    <rc><c>B </c><c>   1</c></rc>
    <rc><c>B </c><c>   1</c></rc>
    <rc><c>B </c><c>   1</c></rc>
    <rc><c>B </c><c>   1</c></rc>
    <rc><c>B </c><c>   1</c></rc>
    <rc><c>B </c><c>   1</c></rc>
    <rc><c>B </c><c>   1</c></rc>
    <rc><c>N </c><c>   2</c></rc>
    <rc><c>N </c><c>   2</c></rc>
    <rc><c>N </c><c>   2</c></rc>
    <rc><c>N </c><c>   2</c></rc>
    <rc><c>N </c><c>   2</c></rc>
    <rc><c>N </c><c>   2</c></rc>
    <rc><c>N </c><c>   2</c></rc>
    <rc><c>N </c><c>   2</c></rc>
    <rc><c>N </c><c>   2</c></rc>
    <rc><c>N </c><c>   2</c></rc>
    <rc><c>N </c><c>   2</c></rc>
    <rc><c>N </c><c>   2</c></rc>
    <rc><c>N </c><c>   2</c></rc>
    <rc><c>N </c><c>   2</c></rc>
    <rc><c>N </c><c>   2</c></rc>
    <rc><c>N </c><c>   2</c></rc>
    <rc><c>N </c><c>   2</c></rc>
    <rc><c>N </c><c>   2</c></rc>
    <rc><c>N </c><c>   2</c></rc>
    <rc><c>N </c><c>   2</c></rc>
    <rc><c>N </c><c>   2</c></rc>
    <rc><c>N </c><c>   2</c></rc>
    <rc><c>N </c><c>   2</c></rc>
    <rc><c>N </c><c>   2</c></rc>
    <rc><c>N </c><c>   2</c></rc>
    <rc><c>N </c><c>   2</c></rc>
    <rc><c>N </c><c>   2</c></rc>
    <rc><c>N </c><c>   2</c></rc>
    <rc><c>N </c><c>   2</c></rc>
    <rc><c>N </c><c>   2</c></rc>
    <rc><c>N </c><c>   2</c></rc>
    <rc><c>N </c><c>   2</c></rc>
    <rc><c>N </c><c>   2</c></rc>
    <rc><c>N </c><c>   2</c></rc>
    <rc><c>N </c><c>   2</c></rc>
    <rc><c>N </c><c>   2</c></rc>
    <rc><c>N </c><c>   2</c></rc>
    <rc><c>N </c><c>   2</c></rc>
    <rc><c>N </c><c>   2</c></rc>
    <rc><c>N </c><c>   2</c></rc>
    <rc><c>N </c><c>   2</c></rc>
    <rc><c>N </c><c>   2</c></rc>
    <rc><c>N </c><c>   2</c></rc>
    <rc><c>N </c><c>   2</c></rc>
    <rc><c>N </c><c>   2</c></rc>
    <rc><c>N </c><c>   2</c></rc>
    <rc><c>N </c><c>   2</c></rc>
    <rc><c>N </c><c>   2</c></rc>
    <rc><c>C </c><c>   3</c></rc>
   </set>
  </array>
  <array name="atomtypes" >
   <dimension dim="1">type</dimension>
   <field type="int">atomspertype</field>
   <field type="string">element</field>
   <field>mass</field>
   <field>valence</field>
   <field type="string">pseudopotential</field>
   <set>
    <rc><c>  48</c><c>B </c><c>     10.81100000</c><c>      3.00000000</c><c>  PAW_PBE B 06Sep2000                   </c></rc>
    <rc><c>  48</c><c>N </c><c>     14.00100000</c><c>      5.00000000</c><c>  PAW_PBE N 08Apr2002                   </c></rc>
    <rc><c>   1</c><c>C </c><c>     12.01100000</c><c>      4.00000000</c><c>  PAW_PBE C 08Apr2002                   </c></rc>
   </set>
  </array>
 </atominfo>
 <structure name="initialpos" >
  <crystal>
   <varray name="basis" >
    <v>      17.59966831       0.00000000       0.00000000 </v>
    <v>      -8.79983416      15.24175986       0.00000000 </v>
    <v>       0.00000000       0.00000000      19.92151445 </v>
   </varray>
   <i name="volume">   5343.94461817 </i>
   <varray name="rec_basis" >
    <v>       0.05681925       0.03280461       0.00000000 </v>
    <v>       0.00000000       0.06560922       0.00000000 </v>
    <v>       0.00000000       0.00000000       0.05019699 </v>
   </varray>
  </crystal>
  <varray name="positions" >
   <v>       0.99943010       0.00005992       0.50000000 </v>
   <v>       0.14164706       0.99871895       0.50000000 </v>
   <v>       0.28492260       0.99841663       0.50000000 </v>
   <v>       0.42850047       0.99871895       0.50000000 </v>
   <v>       0.57205839       0.00005992       0.50000000 </v>
   <v>       0.71530655       0.00214292       0.50000000 </v>
   <v>       0.85826494       0.00214292       0.50000000 </v>
   <v>       0.00080792       0.14408264       0.50000000 </v>
   <v>       0.14259355       0.14244783       0.50000000 </v>
   <v>       0.28470221       0.14112972       0.50000000 </v>
   <v>       0.42785608       0.14112972       0.50000000 </v>
   <v>       0.57128286       0.14244783       0.50000000 </v>
   <v>       0.71470329       0.14408264       0.50000000 </v>
   <v>       0.85805263       0.14467669       0.50000000 </v>
   <v>       0.00095476       0.28713011       0.50000000 </v>
   <v>       0.14372552       0.28645370       0.50000000 </v>
   <v>       0.28540977       0.28469374       0.50000000 </v>
   <v>       0.42724431       0.28306005       0.50000000 </v>
   <v>       0.57071254       0.28469374       0.50000000 </v>
   <v>       0.71415674       0.28645370       0.50000000 </v>
   <v>       0.85760392       0.28713011       0.50000000 </v>
   <v>       0.00054479       0.42966101       0.50000000 </v>
   <v>       0.14422690       0.42957551       0.50000000 </v>
   <v>       0.28730213       0.42918005       0.50000000 </v>
   <v>       0.42797654       0.42569726       0.50000000 </v>
   <v>       0.56914930       0.42569726       0.50000000 </v>
   <v>       0.71330650       0.42918005       0.50000000 </v>
   <v>       0.85677719       0.42957551       0.50000000 </v>
   <v>       0.99928255       0.57181462       0.50000000 </v>
   <v>       0.14396064       0.57181462       0.50000000 </v>
   <v>       0.28862787       0.57181625       0.50000000 </v>
   <v>       0.43313209       0.57215564       0.50000000 </v>
   <v>       0.71045212       0.57215564       0.50000000 </v>
   <v>       0.85461695       0.57181625       0.50000000 </v>
   <v>       0.99707234       0.71370518       0.50000000 </v>
   <v>       0.14255519       0.71368182       0.50000000 </v>
   <v>       0.28806142       0.71370518       0.50000000 </v>
   <v>       0.43464191       0.71382540       0.50000000 </v>
   <v>       0.58510826       0.71626937       0.50000000 </v>
   <v>       0.70258968       0.71626937       0.50000000 </v>
   <v>       0.85061206       0.71382540       0.50000000 </v>
   <v>       0.99777175       0.85613493       0.50000000 </v>
   <v>       0.14160898       0.85591288       0.50000000 </v>
   <v>       0.28573247       0.85591288       0.50000000 </v>
   <v>       0.42979175       0.85613493       0.50000000 </v>
   <v>       0.57342541       0.85758690       0.50000000 </v>
   <v>       0.71640633       0.86138410       0.50000000 </v>
   <v>       0.85559006       0.85758690       0.50000000 </v>
   <v>       0.04754270       0.09547788       0.50000000 </v>
   <v>       0.18957833       0.09405657       0.50000000 </v>
   <v>       0.33254182       0.09365506       0.50000000 </v>
   <v>       0.47590681       0.09405657       0.50000000 </v>
   <v>       0.61936376       0.09547788       0.50000000 </v>
   <v>       0.76280004       0.09719274       0.50000000 </v>
   <v>       0.90582126       0.09719274       0.50000000 </v>
   <v>       0.04854983       0.23934281       0.50000000 </v>
   <v>       0.19048138       0.23782962       0.50000000 </v>
   <v>       0.33234878       0.23634667       0.50000000 </v>
   <v>       0.47542646       0.23634667       0.50000000 </v>
   <v>       0.61877681       0.23782962       0.50000000 </v>
   <v>       0.76222155       0.23934281       0.50000000 </v>
   <v>       0.90562797       0.23982737       0.50000000 </v>
   <v>       0.04871288       0.38232824       0.50000000 </v>
   <v>       0.19188940       0.38184213       0.50000000 </v>
   <v>       0.33352206       0.38013969       0.50000000 </v>
   <v>       0.47472270       0.37801683       0.50000000 </v>
   <v>       0.61804620       0.38013969       0.50000000 </v>
   <v>       0.76138130       0.38184213       0.50000000 </v>
   <v>       0.90504393       0.38232824       0.50000000 </v>
   <v>       0.04810654       0.52478452       0.50000000 </v>
   <v>       0.19263929       0.52476864       0.50000000 </v>
   <v>       0.33696521       0.52455433       0.50000000 </v>
   <v>       0.47833704       0.52146721       0.50000000 </v>
   <v>       0.61455874       0.52146721       0.50000000 </v>
   <v>       0.75901769       0.52455433       0.50000000 </v>
   <v>       0.90355792       0.52476864       0.50000000 </v>
   <v>       0.04642473       0.66685228       0.50000000 </v>
   <v>       0.19185612       0.66685228       0.50000000 </v>
   <v>       0.33777931       0.66688794       0.50000000 </v>
   <v>       0.48615700       0.66710760       0.50000000 </v>
   <v>       0.75237918       0.66710760       0.50000000 </v>
   <v>       0.90053720       0.66688794       0.50000000 </v>
   <v>       0.04582562       0.80879365       0.50000000 </v>
   <v>       0.19009580       0.80876303       0.50000000 </v>
   <v>       0.33439660       0.80879365       0.50000000 </v>
   <v>       0.47844872       0.80953888       0.50000000 </v>
   <v>       0.62209487       0.81129474       0.50000000 </v>
   <v>       0.76062845       0.81129474       0.50000000 </v>
   <v>       0.90195054       0.80897069       0.50000000 </v>
   <v>       0.04629157       0.95154386       0.50000000 </v>
   <v>       0.18948291       0.95113037       0.50000000 </v>
   <v>       0.33307603       0.95113037       0.50000000 </v>
   <v>       0.47668087       0.95154386       0.50000000 </v>
   <v>       0.62015751       0.95313740       0.50000000 </v>
   <v>       0.76355772       0.95568687       0.50000000 </v>
   <v>       0.90440847       0.95313740       0.50000000 </v>
   <v>       0.56830873       0.56518888       0.50000000 </v>
  </varray>
 </structure>
 <calculation>
  <scstep>
   <time name="dav">    2.36    2.38</time>
   <time name="total">    2.77    2.82</time>
   <energy>
    <i name="alphaZ">    156.50993408 </i>
    <i name="ewald">  58206.90393195 </i>
    <i name="hartreedc"> -70374.33448150 </i>
    <i name="XCdc">   1302.10869658 </i>
    <i name="pawpsdc">  12033.28670802 </i>
    <i name="pawaedc"> -12049.96799276 </i>
    <i name="eentropy">     -0.00000000 </i>
    <i name="bandstr">   -904.55637879 </i>
    <i name="atom">  16260.93880140 </i>
    <i name="e_fr_energy">   4630.88921897 </i>
    <i name="e_wo_entrp">   4630.88921897 </i>
    <i name="e_0_energy">   4630.88921897 </i>
   </energy>
  </scstep>
  <scstep>
   <time name="dav">    2.99    3.03</time>
   <time name="total">    2.99    3.03</time>
   <energy>
    <i name="e_fr_energy">    216.78471345 </i>
    <i name="e_wo_entrp">    216.78471345 </i>
    <i name="e_0_energy">    216.78471345 </i>
   </energy>
  </scstep>
  <scstep>
   <time name="dav">    2.47    2.50</time>
   <time name="total">    2.47    2.50</time>
   <energy>
    <i name="e_fr_energy">   -867.43687035 </i>
    <i name="e_wo_entrp">   -867.43687035 </i>
    <i name="e_0_energy">   -867.43687035 </i>
   </energy>
  </scstep>
  <scstep>
   <time name="dav">    2.47    2.50</time>
   <time name="total">    2.47    2.50</time>
   <energy>
    <i name="e_fr_energy">   -934.19458357 </i>
    <i name="e_wo_entrp">   -934.19458357 </i>
    <i name="e_0_energy">   -934.19458357 </i>
   </energy>
  </scstep>
  <scstep>
   <time name="dav">    2.50    2.53</time>
   <time name="total">    2.94    2.98</time>
   <energy>
    <i name="e_fr_energy">   -935.77558557 </i>
    <i name="e_wo_entrp">   -935.77558557 </i>
    <i name="e_0_energy">   -935.77558557 </i>
   </energy>
  </scstep>
  <scstep>
   <time name="dav">    2.33    2.34</time>
   <time name="total">    3.12    3.16</time>
   <energy>
    <i name="e_fr_energy">   -858.72865655 </i>
    <i name="e_wo_entrp">   -858.72865655 </i>
    <i name="e_0_energy">   -858.72865655 </i>
   </energy>
  </scstep>
  <scstep>
   <time name="dav">    2.35    2.37</time>
   <time name="total">    3.15    3.18</time>
   <energy>
    <i name="e_fr_energy">   -850.19298579 </i>
    <i name="e_wo_entrp">   -850.19298579 </i>
    <i name="e_0_energy">   -850.19298579 </i>
   </energy>
  </scstep>
  <scstep>
   <time name="dav">    2.29    2.31</time>
   <time name="total">    3.31    3.37</time>
   <energy>
    <i name="e_fr_energy">   -845.92671171 </i>
    <i name="e_wo_entrp">   -845.92671078 </i>
    <i name="e_0_energy">   -845.92671125 </i>
   </energy>
  </scstep>
  <scstep>
   <time name="dav">    2.33    2.37</time>
   <time name="total">    3.19    3.24</time>
   <energy>
    <i name="e_fr_energy">   -845.80088178 </i>
    <i name="e_wo_entrp">   -845.80088178 </i>
    <i name="e_0_energy">   -845.80088178 </i>
   </energy>
  </scstep>
  <scstep>
   <time name="dav">    2.38    2.40</time>
   <time name="total">    3.18    3.24</time>
   <energy>
    <i name="e_fr_energy">   -845.63972871 </i>
    <i name="e_wo_entrp">   -845.63972871 </i>
    <i name="e_0_energy">   -845.63972871 </i>
   </energy>
  </scstep>
  <scstep>
   <time name="dav">    2.26    2.28</time>
   <time name="total">    3.07    3.10</time>
   <energy>
    <i name="e_fr_energy">   -845.58707263 </i>
    <i name="e_wo_entrp">   -845.58707263 </i>
    <i name="e_0_energy">   -845.58707263 </i>
   </energy>
  </scstep>
  <scstep>
   <time name="dav">    2.25    2.27</time>
   <time name="total">    3.06    3.09</time>
   <energy>
    <i name="e_fr_energy">   -845.57413000 </i>
    <i name="e_wo_entrp">   -845.57413000 </i>
    <i name="e_0_energy">   -845.57413000 </i>
   </energy>
  </scstep>
  <scstep>
   <time name="dav">    2.23    2.25</time>
   <time name="total">    3.04    3.08</time>
   <energy>
    <i name="e_fr_energy">   -845.58468585 </i>
    <i name="e_wo_entrp">   -845.58468585 </i>
    <i name="e_0_energy">   -845.58468585 </i>
   </energy>
  </scstep>
  <scstep>
   <time name="dav">    2.23    2.25</time>
   <time name="total">    3.04    3.07</time>
   <energy>
    <i name="e_fr_energy">   -845.59416313 </i>
    <i name="e_wo_entrp">   -845.59416313 </i>
    <i name="e_0_energy">   -845.59416313 </i>
   </energy>
  </scstep>
  <scstep>
   <time name="dav">    2.18    2.20</time>
   <time name="total">    2.99    3.02</time>
   <energy>
    <i name="e_fr_energy">   -845.62543184 </i>
    <i name="e_wo_entrp">   -845.62543184 </i>
    <i name="e_0_energy">   -845.62543184 </i>
   </energy>
  </scstep>
  <scstep>
   <time name="dav">    2.25    2.27</time>
   <time name="total">    3.06    3.09</time>
   <energy>
    <i name="e_fr_energy">   -845.64186307 </i>
    <i name="e_wo_entrp">   -845.64186307 </i>
    <i name="e_0_energy">   -845.64186307 </i>
   </energy>
  </scstep>
  <scstep>
   <time name="dav">    2.25    2.28</time>
   <time name="total">    3.06    3.10</time>
   <energy>
    <i name="e_fr_energy">   -845.64815142 </i>
    <i name="e_wo_entrp">   -845.64815142 </i>
    <i name="e_0_energy">   -845.64815142 </i>
   </energy>
  </scstep>
  <scstep>
   <time name="dav">    2.19    2.21</time>
   <time name="total">    3.00    3.04</time>
   <energy>
    <i name="e_fr_energy">   -845.65135684 </i>
    <i name="e_wo_entrp">   -845.65135684 </i>
    <i name="e_0_energy">   -845.65135684 </i>
   </energy>
  </scstep>
  <scstep>
   <time name="dav">    2.30    2.32</time>
   <time name="total">    3.11    3.15</time>
   <energy>
    <i name="e_fr_energy">   -845.65238750 </i>
    <i name="e_wo_entrp">   -845.65238750 </i>
    <i name="e_0_energy">   -845.65238750 </i>
   </energy>
  </scstep>
  <scstep>
   <time name="dav">    2.23    2.25</time>
   <time name="total">    3.04    3.08</time>
   <energy>
    <i name="e_fr_energy">   -845.65281063 </i>
    <i name="e_wo_entrp">   -845.65281063 </i>
    <i name="e_0_energy">   -845.65281063 </i>
   </energy>
  </scstep>
  <scstep>
   <time name="dav">    2.27    2.29</time>
   <time name="total">    3.08    3.12</time>
   <energy>
    <i name="e_fr_energy">   -845.65301090 </i>
    <i name="e_wo_entrp">   -845.65301090 </i>
    <i name="e_0_energy">   -845.65301090 </i>
   </energy>
  </scstep>
  <scstep>
   <time name="dav">    2.18    2.20</time>
   <time name="total">    2.99    3.03</time>
   <energy>
    <i name="e_fr_energy">   -845.65312534 </i>
    <i name="e_wo_entrp">   -845.65312534 </i>
    <i name="e_0_energy">   -845.65312534 </i>
   </energy>
  </scstep>
  <scstep>
   <time name="dav">    2.23    2.25</time>
   <time name="total">    3.04    3.07</time>
   <energy>
    <i name="e_fr_energy">   -845.65320273 </i>
    <i name="e_wo_entrp">   -845.65320273 </i>
    <i name="e_0_energy">   -845.65320273 </i>
   </energy>
  </scstep>
  <scstep>
   <time name="dav">    2.31    2.33</time>
   <time name="total">    3.12    3.16</time>
   <energy>
    <i name="e_fr_energy">   -845.65324181 </i>
    <i name="e_wo_entrp">   -845.65324181 </i>
    <i name="e_0_energy">   -845.65324181 </i>
   </energy>
  </scstep>
  <scstep>
   <time name="dav">    2.23    2.25</time>
   <time name="total">    3.05    3.09</time>
   <energy>
    <i name="e_fr_energy">   -845.65326005 </i>
    <i name="e_wo_entrp">   -845.65326005 </i>
    <i name="e_0_energy">   -845.65326005 </i>
   </energy>
  </scstep>
  <scstep>
   <time name="dav">    2.23    2.25</time>
   <time name="total">    3.04    3.08</time>
   <energy>
    <i name="e_fr_energy">   -845.65327672 </i>
    <i name="e_wo_entrp">   -845.65327672 </i>
    <i name="e_0_energy">   -845.65327672 </i>
   </energy>
  </scstep>
  <scstep>
   <time name="dav">    2.18    2.20</time>
   <time name="total">    3.01    3.04</time>
   <energy>
    <i name="e_fr_energy">   -845.65327999 </i>
    <i name="e_wo_entrp">   -845.65327999 </i>
    <i name="e_0_energy">   -845.65327999 </i>
   </energy>
  </scstep>
  <scstep>
   <time name="dav">    1.97    1.98</time>
   <time name="total">    2.78    2.82</time>
   <energy>
    <i name="e_fr_energy">   -845.65328126 </i>
    <i name="e_wo_entrp">   -845.65328126 </i>
    <i name="e_0_energy">   -845.65328126 </i>
   </energy>
  </scstep>
  <scstep>
   <time name="dav">    1.79    1.81</time>
   <time name="total">    2.62    2.65</time>
   <energy>
    <i name="e_fr_energy">   -845.65328157 </i>
    <i name="e_wo_entrp">   -845.65328157 </i>
    <i name="e_0_energy">   -845.65328157 </i>
   </energy>
  </scstep>
  <scstep>
   <time name="dav">    1.84    1.86</time>
   <time name="total">    2.66    2.71</time>
   <energy>
    <i name="e_fr_energy">   -845.65328168 </i>
    <i name="e_wo_entrp">   -845.65328168 </i>
    <i name="e_0_energy">   -845.65328168 </i>
   </energy>
  </scstep>
  <scstep>
   <time name="dav">    1.65    1.67</time>
   <time name="total">    2.50    2.53</time>
   <energy>
    <i name="e_fr_energy">   -845.65328174 </i>
    <i name="e_wo_entrp">   -845.65328174 </i>
    <i name="e_0_energy">   -845.65328174 </i>
   </energy>
  </scstep>
  <scstep>
   <time name="dav">    1.72    1.74</time>
   <time name="total">    2.55    2.58</time>
   <energy>
    <i name="e_fr_energy">   -845.65328177 </i>
    <i name="e_wo_entrp">   -845.65328177 </i>
    <i name="e_0_energy">   -845.65328177 </i>
   </energy>
  </scstep>
  <scstep>
   <time name="dav">    1.82    1.83</time>
   <time name="total">    2.18    2.21</time>
   <energy>
    <i name="alphaZ">    156.50993408 </i>
    <i name="ewald">  58206.90393195 </i>
    <i name="hartreedc"> -72314.44019683 </i>
    <i name="XCdc">   1369.72368122 </i>
    <i name="pawpsdc">  44018.79919973 </i>
    <i name="pawaedc"> -44054.14098901 </i>
    <i name="eentropy">     -0.00000000 </i>
    <i name="bandstr">  -4489.94764431 </i>
    <i name="atom">  16260.93880140 </i>
    <i name="e_fr_energy">   -845.65328177 </i>
    <i name="e_wo_entrp">   -845.65328177 </i>
    <i name="e_0_energy">   -845.65328177 </i>
   </energy>
  </scstep>
  <structure>
   <crystal>
    <varray name="basis" >
     <v>      17.59966831       0.00000000       0.00000000 </v>
     <v>      -8.79983416      15.24175986       0.00000000 </v>
     <v>       0.00000000       0.00000000      19.92151445 </v>
    </varray>
    <i name="volume">   5343.94461817 </i>
    <varray name="rec_basis" >
     <v>       0.05681925       0.03280461       0.00000000 </v>
     <v>       0.00000000       0.06560922       0.00000000 </v>
     <v>       0.00000000       0.00000000       0.05019699 </v>
    </varray>
   </crystal>
   <varray name="positions" >
    <v>       0.99943010       0.00005992       0.50000000 </v>
    <v>       0.14164706       0.99871895       0.50000000 </v>
    <v>       0.28492260       0.99841663       0.50000000 </v>
    <v>       0.42850047       0.99871895       0.50000000 </v>
    <v>       0.57205839       0.00005992       0.50000000 </v>
    <v>       0.71530655       0.00214292       0.50000000 </v>
    <v>       0.85826494       0.00214292       0.50000000 </v>
    <v>       0.00080792       0.14408264       0.50000000 </v>
    <v>       0.14259355       0.14244783       0.50000000 </v>
    <v>       0.28470221       0.14112972       0.50000000 </v>
    <v>       0.42785608       0.14112972       0.50000000 </v>
    <v>       0.57128286       0.14244783       0.50000000 </v>
    <v>       0.71470329       0.14408264       0.50000000 </v>
    <v>       0.85805263       0.14467669       0.50000000 </v>
    <v>       0.00095476       0.28713011       0.50000000 </v>
    <v>       0.14372552       0.28645370       0.50000000 </v>
    <v>       0.28540977       0.28469374       0.50000000 </v>
    <v>       0.42724431       0.28306005       0.50000000 </v>
    <v>       0.57071254       0.28469374       0.50000000 </v>
    <v>       0.71415674       0.28645370       0.50000000 </v>
    <v>       0.85760392       0.28713011       0.50000000 </v>
    <v>       0.00054479       0.42966101       0.50000000 </v>
    <v>       0.14422690       0.42957551       0.50000000 </v>
    <v>       0.28730213       0.42918005       0.50000000 </v>
    <v>       0.42797654       0.42569726       0.50000000 </v>
    <v>       0.56914930       0.42569726       0.50000000 </v>
    <v>       0.71330650       0.42918005       0.50000000 </v>
    <v>       0.85677719       0.42957551       0.50000000 </v>
    <v>       0.99928255       0.57181462       0.50000000 </v>
    <v>       0.14396064       0.57181462       0.50000000 </v>
    <v>       0.28862787       0.57181625       0.50000000 </v>
    <v>       0.43313209       0.57215564       0.50000000 </v>
    <v>       0.71045212       0.57215564       0.50000000 </v>
    <v>       0.85461695       0.57181625       0.50000000 </v>
    <v>       0.99707234       0.71370518       0.50000000 </v>
    <v>       0.14255519       0.71368182       0.50000000 </v>
    <v>       0.28806142       0.71370518       0.50000000 </v>
    <v>       0.43464191       0.71382540       0.50000000 </v>
    <v>       0.58510826       0.71626937       0.50000000 </v>
    <v>       0.70258968       0.71626937       0.50000000 </v>
    <v>       0.85061206       0.71382540       0.50000000 </v>
    <v>       0.99777175       0.85613493       0.50000000 </v>
    <v>       0.14160898       0.85591288       0.50000000 </v>
    <v>       0.28573247       0.85591288       0.50000000 </v>
    <v>       0.42979175       0.85613493       0.50000000 </v>
    <v>       0.57342541       0.85758690       0.50000000 </v>
    <v>       0.71640633       0.86138410       0.50000000 </v>
    <v>       0.85559006       0.85758690       0.50000000 </v>
    <v>       0.04754270       0.09547788       0.50000000 </v>
    <v>       0.18957833       0.09405657       0.50000000 </v>
    <v>       0.33254182       0.09365506       0.50000000 </v>
    <v>       0.47590681       0.09405657       0.50000000 </v>
    <v>       0.61936376       0.09547788       0.50000000 </v>
    <v>       0.76280004       0.09719274       0.50000000 </v>
    <v>       0.90582126       0.09719274       0.50000000 </v>
    <v>       0.04854983       0.23934281       0.50000000 </v>
    <v>       0.19048138       0.23782962       0.50000000 </v>
    <v>       0.33234878       0.23634667       0.50000000 </v>
    <v>       0.47542646       0.23634667       0.50000000 </v>
    <v>       0.61877681       0.23782962       0.50000000 </v>
    <v>       0.76222155       0.23934281       0.50000000 </v>
    <v>       0.90562797       0.23982737       0.50000000 </v>
    <v>       0.04871288       0.38232824       0.50000000 </v>
    <v>       0.19188940       0.38184213       0.50000000 </v>
    <v>       0.33352206       0.38013969       0.50000000 </v>
    <v>       0.47472270       0.37801683       0.50000000 </v>
    <v>       0.61804620       0.38013969       0.50000000 </v>
    <v>       0.76138130       0.38184213       0.50000000 </v>
    <v>       0.90504393       0.38232824       0.50000000 </v>
    <v>       0.04810654       0.52478452       0.50000000 </v>
    <v>       0.19263929       0.52476864       0.50000000 </v>
    <v>       0.33696521       0.52455433       0.50000000 </v>
    <v>       0.47833704       0.52146721       0.50000000 </v>
    <v>       0.61455874       0.52146721       0.50000000 </v>
    <v>       0.75901769       0.52455433       0.50000000 </v>
    <v>       0.90355792       0.52476864       0.50000000 </v>
    <v>       0.04642473       0.66685228       0.50000000 </v>
    <v>       0.19185612       0.66685228       0.50000000 </v>
    <v>       0.33777931       0.66688794       0.50000000 </v>
    <v>       0.48615700       0.66710760       0.50000000 </v>
    <v>       0.75237918       0.66710760       0.50000000 </v>
    <v>       0.90053720       0.66688794       0.50000000 </v>
    <v>       0.04582562       0.80879365       0.50000000 </v>
    <v>       0.19009580       0.80876303       0.50000000 </v>
    <v>       0.33439660       0.80879365       0.50000000 </v>
    <v>       0.47844872       0.80953888       0.50000000 </v>
    <v>       0.62209487       0.81129474       0.50000000 </v>
    <v>       0.76062845       0.81129474       0.50000000 </v>
    <v>       0.90195054       0.80897069       0.50000000 </v>
    <v>       0.04629157       0.95154386       0.50000000 </v>
    <v>       0.18948291       0.95113037       0.50000000 </v>
    <v>       0.33307603       0.95113037       0.50000000 </v>
    <v>       0.47668087       0.95154386       0.50000000 </v>
    <v>       0.62015751       0.95313740       0.50000000 </v>
    <v>       0.76355772       0.95568687       0.50000000 </v>
    <v>       0.90440847       0.95313740       0.50000000 </v>
    <v>       0.56830873       0.56518888       0.50000000 </v>
   </varray>
  </structure>
  <varray name="forces" >
   <v>      -0.03868646      -0.02653887      -0.00000000 </v>
   <v>      -0.02000222      -0.01040586      -0.00000000 </v>
   <v>       0.00433712      -0.01504906      -0.00000000 </v>
   <v>       0.03542199      -0.01301102      -0.00000000 </v>
   <v>       0.02895722      -0.03570990      -0.00000000 </v>
   <v>      -0.04217953      -0.04785711      -0.00000000 </v>
   <v>       0.03334047      -0.04933775      -0.00000000 </v>
   <v>      -0.00637181      -0.02779098      -0.00000000 </v>
   <v>      -0.02626720      -0.02687462      -0.00000000 </v>
   <v>      -0.00567001      -0.03552296      -0.00000000 </v>
   <v>       0.01102750      -0.03619349      -0.00000000 </v>
   <v>       0.02740660      -0.02973938      -0.00000000 </v>
   <v>       0.00249758      -0.02963227      -0.00000000 </v>
   <v>      -0.00251514      -0.04233385      -0.00000000 </v>
   <v>      -0.00966974      -0.03042545      -0.00000000 </v>
   <v>       0.00507776      -0.04637230      -0.00000000 </v>
   <v>      -0.02984329      -0.00531384      -0.00000000 </v>
   <v>       0.00148949      -0.09630000      -0.00000000 </v>
   <v>       0.03167969      -0.00512363      -0.00000000 </v>
   <v>      -0.00583375      -0.04635089      -0.00000000 </v>
   <v>       0.00712015      -0.03054268      -0.00000000 </v>
   <v>      -0.00120993       0.00692180      -0.00000000 </v>
   <v>      -0.02649405      -0.00281654      -0.00000000 </v>
   <v>       0.05717137      -0.14315088      -0.00000000 </v>
   <v>      -0.11160267      -0.20342953      -0.00000000 </v>
   <v>       0.11335173      -0.20218084      -0.00000000 </v>
   <v>      -0.05660836      -0.13972737      -0.00000000 </v>
   <v>       0.02500592      -0.00158163      -0.00000000 </v>
   <v>       0.01634914       0.02990411      -0.00000000 </v>
   <v>      -0.01999014       0.03098170       0.00000000 </v>
   <v>      -0.08705125       0.12007100      -0.00000000 </v>
   <v>       0.04640938       0.38433071      -0.00000000 </v>
   <v>      -0.04853419       0.39609906      -0.00000000 </v>
   <v>       0.08637699       0.12818662       0.00000000 </v>
   <v>      -0.00755939       0.02326950      -0.00000000 </v>
   <v>      -0.00023101       0.03127380      -0.00000000 </v>
   <v>      -0.00301646       0.04147124      -0.00000000 </v>
   <v>       0.04146155       0.22620011      -0.00000000 </v>
   <v>       1.37507502       1.25780320      -0.00000000 </v>
   <v>      -1.36205624       1.25128792      -0.00000000 </v>
   <v>      -0.08482190       0.04372507      -0.00000000 </v>
   <v>      -0.04514853      -0.00725927       0.00000000 </v>
   <v>      -0.01081941      -0.00397127      -0.00000000 </v>
   <v>       0.01986375      -0.00586145      -0.00000000 </v>
   <v>      -0.08829479       0.11635182      -0.00000000 </v>
   <v>       0.11000692       0.10593089      -0.00000000 </v>
   <v>       0.00205189      -0.24457018      -0.00000000 </v>
   <v>      -0.14890091       0.03798433      -0.00000000 </v>
   <v>       0.02638772       0.03240307      -0.00000000 </v>
   <v>       0.00925574       0.02422716      -0.00000000 </v>
   <v>      -0.00257001       0.02941253      -0.00000000 </v>
   <v>      -0.01438129       0.02939417      -0.00000000 </v>
   <v>      -0.02427333       0.03848933      -0.00000000 </v>
   <v>      -0.00842936       0.02902359       0.00000000 </v>
   <v>       0.01373383       0.02683888      -0.00000000 </v>
   <v>       0.01711835       0.03649620      -0.00000000 </v>
   <v>      -0.00880459       0.00506218       0.00000000 </v>
   <v>       0.01449702       0.03793977      -0.00000000 </v>
   <v>      -0.01739640       0.03873732       0.00000000 </v>
   <v>       0.00822102       0.00688453      -0.00000000 </v>
   <v>      -0.01519469       0.03787690       0.00000000 </v>
   <v>       0.00147529       0.03235758       0.00000000 </v>
   <v>       0.01262908       0.02743228       0.00000000 </v>
   <v>       0.04917263       0.06196961      -0.00000000 </v>
   <v>      -0.02236350      -0.19680509      -0.00000000 </v>
   <v>      -0.00144148       0.11316007      -0.00000000 </v>
   <v>       0.02044042      -0.19750840      -0.00000000 </v>
   <v>      -0.04822389       0.06124486      -0.00000000 </v>
   <v>      -0.01033124       0.02730257      -0.00000000 </v>
   <v>       0.00133316       0.00884669       0.00000000 </v>
   <v>       0.02980757      -0.00504382       0.00000000 </v>
   <v>       0.19201869       0.11845421       0.00000000 </v>
   <v>       1.01933745      -1.55889578      -0.00000000 </v>
   <v>      -1.02550756      -1.56169254      -0.00000000 </v>
   <v>      -0.19165278       0.11360659      -0.00000000 </v>
   <v>      -0.02600697      -0.00678606      -0.00000000 </v>
   <v>       0.00925702      -0.03440829       0.00000000 </v>
   <v>      -0.00755993      -0.03722375       0.00000000 </v>
   <v>      -0.03383310      -0.05319786      -0.00000000 </v>
   <v>      -0.29194702       0.04519138       0.00000000 </v>
   <v>       0.26771554       0.00898533       0.00000000 </v>
   <v>       0.05756155      -0.06672612      -0.00000000 </v>
   <v>       0.03466197      -0.01375027      -0.00000000 </v>
   <v>      -0.00323037      -0.01369019       0.00000000 </v>
   <v>      -0.05625645      -0.02928496       0.00000000 </v>
   <v>       0.18004912      -0.46851235       0.00000000 </v>
   <v>      -0.91062276       0.22339413       0.00000000 </v>
   <v>       0.88215017       0.24122051       0.00000000 </v>
   <v>       0.08346916      -0.01415865      -0.00000000 </v>
   <v>       0.03045809       0.01683047       0.00000000 </v>
   <v>       0.00723646      -0.00362992      -0.00000000 </v>
   <v>      -0.01669304      -0.00264748      -0.00000000 </v>
   <v>      -0.05839825       0.05599206      -0.00000000 </v>
   <v>      -0.08119601       0.13361382      -0.00000000 </v>
   <v>       0.00261234       0.01216076       0.00000000 </v>
   <v>       0.11026827       0.11780371      -0.00000000 </v>
   <v>       0.00334548      -0.11920874      -0.00000000 </v>
  </varray>
  <varray name="stress" >
   <v>     -10.57534729      -0.01526878       0.00000000 </v>
   <v>      -0.01526877       3.00468326       0.00000000 </v>
   <v>       0.00000000       0.00000000      -0.42556188 </v>
  </varray>
  <energy>
   <i name="e_fr_energy">   -845.65328177 </i>
   <i name="e_wo_entrp">   -845.65328177 </i>
   <i name="e_0_energy">     -0.00000000 </i>
  </energy>
  <time name="totalsc">  104.28  105.60</time>
  <eigenvalues>
   <array>
    <dimension dim="1">band</dimension>
    <dimension dim="2">kpoint</dimension>
    <dimension dim="3">spin</dimension>
    <field>eigene</field>
    <field>occ</field>
    <set>
     <set comment="spin 1">
      <set comment="kpoint 1">
       <r>  -22.5442    1.0000 </r>
       <r>  -22.0189    1.0000 </r>
       <r>  -21.7737    1.0000 </r>
       <r>  -21.7433    1.0000 </r>
       <r>  -21.6952    1.0000 </r>
       <r>  -21.6537    1.0000 </r>
       <r>  -21.6176    1.0000 </r>
       <r>  -21.2367    1.0000 </r>
       <r>  -21.0705    1.0000 </r>
       <r>  -21.0046    1.0000 </r>
       <r>  -20.9696    1.0000 </r>
       <r>  -20.9254    1.0000 </r>
       <r>  -20.8753    1.0000 </r>
       <r>  -20.7434    1.0000 </r>
       <r>  -20.7017    1.0000 </r>
       <r>  -20.6642    1.0000 </r>
       <r>  -20.5947    1.0000 </r>
       <r>  -20.5672    1.0000 </r>
       <r>  -20.4279    1.0000 </r>
       <r>  -19.9820    1.0000 </r>
       <r>  -19.9263    1.0000 </r>
       <r>  -19.8044    1.0000 </r>
       <r>  -19.7621    1.0000 </r>
       <r>  -19.7349    1.0000 </r>
       <r>  -19.7344    1.0000 </r>
       <r>  -19.7063    1.0000 </r>
       <r>  -19.6979    1.0000 </r>
       <r>  -19.6431    1.0000 </r>
       <r>  -19.6388    1.0000 </r>
       <r>  -19.6312    1.0000 </r>
       <r>  -19.4927    1.0000 </r>
       <r>  -19.4071    1.0000 </r>
       <r>  -19.3635    1.0000 </r>
       <r>  -19.3543    1.0000 </r>
       <r>  -19.2915    1.0000 </r>
       <r>  -19.2394    1.0000 </r>
       <r>  -19.1092    1.0000 </r>
       <r>  -18.9999    1.0000 </r>
       <r>  -18.9309    1.0000 </r>
       <r>  -18.8758    1.0000 </r>
       <r>  -18.8534    1.0000 </r>
       <r>  -18.8355    1.0000 </r>
       <r>  -18.7668    1.0000 </r>
       <r>  -18.7491    1.0000 </r>
       <r>  -18.7259    1.0000 </r>
       <r>  -18.7133    1.0000 </r>
       <r>  -18.6924    1.0000 </r>
       <r>  -18.4483    1.0000 </r>
       <r>  -14.1438    1.0000 </r>
       <r>  -13.1832    1.0000 </r>
       <r>  -13.1568    1.0000 </r>
       <r>  -13.1091    1.0000 </r>
       <r>  -13.1028    1.0000 </r>
       <r>  -13.0792    1.0000 </r>
       <r>  -13.0152    1.0000 </r>
       <r>  -12.9581    1.0000 </r>
       <r>  -12.9508    1.0000 </r>
       <r>  -12.9355    1.0000 </r>
       <r>  -12.8038    1.0000 </r>
       <r>  -12.7664    1.0000 </r>
       <r>  -12.6021    1.0000 </r>
       <r>  -12.5043    1.0000 </r>
       <r>  -12.4851    1.0000 </r>
       <r>  -12.3776    1.0000 </r>
       <r>  -12.3091    1.0000 </r>
       <r>  -12.2975    1.0000 </r>
       <r>  -12.1758    1.0000 </r>
       <r>  -11.9013    1.0000 </r>
       <r>  -11.8848    1.0000 </r>
       <r>  -11.7668    1.0000 </r>
       <r>  -11.7634    1.0000 </r>
       <r>  -11.7505    1.0000 </r>
       <r>  -11.7382    1.0000 </r>
       <r>  -11.6942    1.0000 </r>
       <r>  -11.6594    1.0000 </r>
       <r>  -11.6324    1.0000 </r>
       <r>  -11.5411    1.0000 </r>
       <r>  -11.4235    1.0000 </r>
       <r>  -11.2007    1.0000 </r>
       <r>  -11.1241    1.0000 </r>
       <r>  -11.0823    1.0000 </r>
       <r>  -11.0578    1.0000 </r>
       <r>  -10.9650    1.0000 </r>
       <r>  -10.9164    1.0000 </r>
       <r>  -10.6855    1.0000 </r>
       <r>  -10.4619    1.0000 </r>
       <r>  -10.4290    1.0000 </r>
       <r>  -10.3498    1.0000 </r>
       <r>  -10.2533    1.0000 </r>
       <r>  -10.2081    1.0000 </r>
       <r>   -9.8907    1.0000 </r>
       <r>   -9.7706    1.0000 </r>
       <r>   -9.7640    1.0000 </r>
       <r>   -9.7248    1.0000 </r>
       <r>   -9.6771    1.0000 </r>
       <r>   -9.5854    1.0000 </r>
       <r>   -9.5413    1.0000 </r>
       <r>   -9.4974    1.0000 </r>
       <r>   -9.4630    1.0000 </r>
       <r>   -9.3525    1.0000 </r>
       <r>   -9.3465    1.0000 </r>
       <r>   -9.2858    1.0000 </r>
       <r>   -9.2615    1.0000 </r>
       <r>   -9.2579    1.0000 </r>
       <r>   -9.2499    1.0000 </r>
       <r>   -9.2376    1.0000 </r>
       <r>   -9.2235    1.0000 </r>
       <r>   -9.2222    1.0000 </r>
       <r>   -9.2088    1.0000 </r>
       <r>   -9.2017    1.0000 </r>
       <r>   -9.1982    1.0000 </r>
       <r>   -9.1965    1.0000 </r>
       <r>   -9.1545    1.0000 </r>
       <r>   -9.1358    1.0000 </r>
       <r>   -9.1107    1.0000 </r>
       <r>   -9.1102    1.0000 </r>
       <r>   -9.0996    1.0000 </r>
       <r>   -9.0439    1.0000 </r>
       <r>   -8.9938    1.0000 </r>
       <r>   -8.8464    1.0000 </r>
       <r>   -8.7935    1.0000 </r>
       <r>   -8.6533    1.0000 </r>
       <r>   -8.5056    1.0000 </r>
       <r>   -8.4794    1.0000 </r>
       <r>   -8.4420    1.0000 </r>
       <r>   -8.3277    1.0000 </r>
       <r>   -8.2234    1.0000 </r>
       <r>   -8.2009    1.0000 </r>
       <r>   -8.1978    1.0000 </r>
       <r>   -8.1713    1.0000 </r>
       <r>   -8.1528    1.0000 </r>
       <r>   -8.1216    1.0000 </r>
       <r>   -8.0380    1.0000 </r>
       <r>   -7.9701    1.0000 </r>
       <r>   -7.9514    1.0000 </r>
       <r>   -7.8711    1.0000 </r>
       <r>   -7.8483    1.0000 </r>
       <r>   -7.8453    1.0000 </r>
       <r>   -7.8009    1.0000 </r>
       <r>   -7.7981    1.0000 </r>
       <r>   -7.7969    1.0000 </r>
       <r>   -7.7365    1.0000 </r>
       <r>   -7.7350    1.0000 </r>
       <r>   -7.7166    1.0000 </r>
       <r>   -7.6781    1.0000 </r>
       <r>   -7.6756    1.0000 </r>
       <r>   -7.6587    1.0000 </r>
       <r>   -7.6370    1.0000 </r>
       <r>   -7.6340    1.0000 </r>
       <r>   -7.4425    1.0000 </r>
       <r>   -7.4385    1.0000 </r>
       <r>   -7.4281    1.0000 </r>
       <r>   -7.3839    1.0000 </r>
       <r>   -7.3588    1.0000 </r>
       <r>   -7.2714    1.0000 </r>
       <r>   -6.8339    1.0000 </r>
       <r>   -6.7595    1.0000 </r>
       <r>   -6.6227    1.0000 </r>
       <r>   -6.6077    1.0000 </r>
       <r>   -6.5431    1.0000 </r>
       <r>   -6.5364    1.0000 </r>
       <r>   -6.5020    1.0000 </r>
       <r>   -6.4890    1.0000 </r>
       <r>   -6.4552    1.0000 </r>
       <r>   -6.4541    1.0000 </r>
       <r>   -6.4392    1.0000 </r>
       <r>   -6.4384    1.0000 </r>
       <r>   -6.4096    1.0000 </r>
       <r>   -6.4046    1.0000 </r>
       <r>   -6.3591    1.0000 </r>
       <r>   -6.3474    1.0000 </r>
       <r>   -6.3180    1.0000 </r>
       <r>   -6.1099    1.0000 </r>
       <r>   -5.9702    1.0000 </r>
       <r>   -5.9224    1.0000 </r>
       <r>   -5.8859    1.0000 </r>
       <r>   -5.8792    1.0000 </r>
       <r>   -5.8595    1.0000 </r>
       <r>   -5.7825    1.0000 </r>
       <r>   -5.7794    1.0000 </r>
       <r>   -5.5290    1.0000 </r>
       <r>   -5.2210    1.0000 </r>
       <r>   -5.2035    1.0000 </r>
       <r>   -5.1955    1.0000 </r>
       <r>   -5.1412    1.0000 </r>
       <r>   -5.1345    1.0000 </r>
       <r>   -5.1031    1.0000 </r>
       <r>   -5.0009    1.0000 </r>
       <r>   -4.9429    1.0000 </r>
       <r>   -4.9164    1.0000 </r>
       <r>   -4.9048    1.0000 </r>
       <r>   -4.8986    1.0000 </r>
       <r>   -4.7333    1.0000 </r>
       <r>   -1.3202    1.0000 </r>
       <r>   -1.2069    0.0000 </r>
       <r>    0.0548    0.0000 </r>
       <r>    0.2052    0.0000 </r>
       <r>    0.2401    0.0000 </r>
       <r>    0.2587    0.0000 </r>
       <r>    0.2624    0.0000 </r>
       <r>    0.3036    0.0000 </r>
       <r>    0.3064    0.0000 </r>
       <r>    0.3773    0.0000 </r>
       <r>    0.3943    0.0000 </r>
       <r>    0.4340    0.0000 </r>
       <r>    0.4800    0.0000 </r>
       <r>    0.5298    0.0000 </r>
       <r>    0.6099    0.0000 </r>
       <r>    0.7462    0.0000 </r>
       <r>    0.7500    0.0000 </r>
       <r>    0.7789    0.0000 </r>
       <r>    0.8055    0.0000 </r>
       <r>    0.8123    0.0000 </r>
       <r>    0.8278    0.0000 </r>
       <r>    0.8392    0.0000 </r>
       <r>    0.8593    0.0000 </r>
       <r>    0.8711    0.0000 </r>
       <r>    0.9777    0.0000 </r>
       <r>    1.0188    0.0000 </r>
       <r>    1.0603    0.0000 </r>
       <r>    1.1184    0.0000 </r>
       <r>    1.4953    0.0000 </r>
       <r>    1.6732    0.0000 </r>
       <r>    1.6970    0.0000 </r>
       <r>    1.7068    0.0000 </r>
       <r>    1.7237    0.0000 </r>
       <r>    1.7403    0.0000 </r>
       <r>    1.7438    0.0000 </r>
       <r>    1.8017    0.0000 </r>
       <r>    1.8076    0.0000 </r>
       <r>    1.8473    0.0000 </r>
       <r>    1.8481    0.0000 </r>
       <r>    1.8798    0.0000 </r>
       <r>    1.8825    0.0000 </r>
       <r>    1.9066    0.0000 </r>
       <r>    1.9082    0.0000 </r>
       <r>    1.9294    0.0000 </r>
       <r>    1.9822    0.0000 </r>
       <r>    2.0284    0.0000 </r>
       <r>    2.1047    0.0000 </r>
       <r>    2.1075    0.0000 </r>
       <r>    2.1289    0.0000 </r>
       <r>    2.1351    0.0000 </r>
       <r>    2.1403    0.0000 </r>
      </set>
     </set>
    </set>
   </array>
  </eigenvalues>
  <separator name="orbital magnetization" >
   <v name="MAGDIPOLOUT">      0.00000000      0.00000000      0.00000000</v>
  </separator>
  <dos>
   <i name="efermi">     -1.25278685 </i>
   <total>
    <array>
     <dimension dim="1">gridpoints</dimension>
     <dimension dim="2">spin</dimension>
     <field>energy</field>
     <field>total</field>
     <field>integrated</field>
     <set>
      <set comment="spin 1">
       <r>   -23.7784     0.0000     0.0000 </r>
       <r>   -23.6879     0.0000     0.0000 </r>
       <r>   -23.5974     0.0000     0.0000 </r>
       <r>   -23.5069     0.0000     0.0000 </r>
       <r>   -23.4164     0.0000     0.0000 </r>
       <r>   -23.3258     0.0000     0.0000 </r>
       <r>   -23.2353     0.0000     0.0000 </r>
       <r>   -23.1448     0.0000     0.0000 </r>
       <r>   -23.0543     0.0000     0.0000 </r>
       <r>   -22.9638     0.0000     0.0000 </r>
       <r>   -22.8733     0.0000     0.0000 </r>
       <r>   -22.7828     0.0000     0.0000 </r>
       <r>   -22.6923     0.0000     0.0000 </r>
       <r>   -22.6018     0.0000     0.0000 </r>
       <r>   -22.5113    22.0970     2.0000 </r>
       <r>   -22.4207     0.0000     2.0000 </r>
       <r>   -22.3302     0.0000     2.0000 </r>
       <r>   -22.2397     0.0000     2.0000 </r>
       <r>   -22.1492     0.0000     2.0000 </r>
       <r>   -22.0587     0.0000     2.0000 </r>
       <r>   -21.9682    22.0971     4.0000 </r>
       <r>   -21.8777     0.0000     4.0000 </r>
       <r>   -21.7872     0.6344     4.0574 </r>
       <r>   -21.6967    52.7991     8.8363 </r>
       <r>   -21.6062    43.0135    13.8931 </r>
       <r>   -21.5156     0.0000    14.0000 </r>
       <r>   -21.4251     0.0000    14.0000 </r>
       <r>   -21.3346     0.0000    14.0000 </r>
       <r>   -21.2441     3.2776    14.2967 </r>
       <r>   -21.1536     0.0000    16.0000 </r>
       <r>   -21.0631    18.8098    17.7025 </r>
       <r>   -20.9726    29.5549    20.6750 </r>
       <r>   -20.8821    25.8232    24.3372 </r>
       <r>   -20.7916     0.0000    26.0000 </r>
       <r>   -20.7011    33.9013    29.0684 </r>
       <r>   -20.6106    22.3750    32.0252 </r>
       <r>   -20.5200    43.9162    36.0000 </r>
       <r>   -20.4295     9.0093    36.8154 </r>
       <r>   -20.3390     0.0000    38.0000 </r>
       <r>   -20.2485     0.0000    38.0000 </r>
       <r>   -20.1580     0.0000    38.0000 </r>
       <r>   -20.0675     0.0000    38.0000 </r>
       <r>   -19.9770    16.8048    39.5210 </r>
       <r>   -19.8865    22.0971    42.0000 </r>
       <r>   -19.7960    19.4995    43.7649 </r>
       <r>   -19.7055    81.5379    51.3800 </r>
       <r>   -19.6149    66.0450    59.9777 </r>
       <r>   -19.5244     0.0001    60.0000 </r>
       <r>   -19.4339    22.0986    62.0001 </r>
       <r>   -19.3434    64.8879    67.8731 </r>
       <r>   -19.2529    22.7127    70.0557 </r>
       <r>   -19.1624    21.4814    72.0000 </r>
       <r>   -19.0719    22.0971    74.0000 </r>
       <r>   -18.9814    21.9994    75.9912 </r>
       <r>   -18.8909    22.4687    78.0336 </r>
       <r>   -18.8004    65.9196    84.0000 </r>
       <r>   -18.7098    81.3646    91.3643 </r>
       <r>   -18.6193    21.9460    94.0000 </r>
       <r>   -18.5288     0.0000    94.0000 </r>
       <r>   -18.4383    20.3618    95.8429 </r>
       <r>   -18.3478     0.0000    96.0000 </r>
       <r>   -18.2573     0.0000    96.0000 </r>
       <r>   -18.1668     0.0000    96.0000 </r>
       <r>   -18.0763     0.0000    96.0000 </r>
       <r>   -17.9858     0.0000    96.0000 </r>
       <r>   -17.8953     0.0000    96.0000 </r>
       <r>   -17.8048     0.0000    96.0000 </r>
       <r>   -17.7142     0.0000    96.0000 </r>
       <r>   -17.6237     0.0000    96.0000 </r>
       <r>   -17.5332     0.0000    96.0000 </r>
       <r>   -17.4427     0.0000    96.0000 </r>
       <r>   -17.3522     0.0000    96.0000 </r>
       <r>   -17.2617     0.0000    96.0000 </r>
       <r>   -17.1712     0.0000    96.0000 </r>
       <r>   -17.0807     0.0000    96.0000 </r>
       <r>   -16.9902     0.0000    96.0000 </r>
       <r>   -16.8997     0.0000    96.0000 </r>
       <r>   -16.8091     0.0000    96.0000 </r>
       <r>   -16.7186     0.0000    96.0000 </r>
       <r>   -16.6281     0.0000    96.0000 </r>
       <r>   -16.5376     0.0000    96.0000 </r>
       <r>   -16.4471     0.0000    96.0000 </r>
       <r>   -16.3566     0.0000    96.0000 </r>
       <r>   -16.2661     0.0000    96.0000 </r>
       <r>   -16.1756     0.0000    96.0000 </r>
       <r>   -16.0851     0.0000    96.0000 </r>
       <r>   -15.9946     0.0000    96.0000 </r>
       <r>   -15.9040     0.0000    96.0000 </r>
       <r>   -15.8135     0.0000    96.0000 </r>
       <r>   -15.7230     0.0000    96.0000 </r>
       <r>   -15.6325     0.0000    96.0000 </r>
       <r>   -15.5420     0.0000    96.0000 </r>
       <r>   -15.4515     0.0000    96.0000 </r>
       <r>   -15.3610     0.0000    96.0000 </r>
       <r>   -15.2705     0.0000    96.0000 </r>
       <r>   -15.1800     0.0000    96.0000 </r>
       <r>   -15.0895     0.0000    96.0000 </r>
       <r>   -14.9989     0.0000    96.0000 </r>
       <r>   -14.9084     0.0000    96.0000 </r>
       <r>   -14.8179     0.0000    96.0000 </r>
       <r>   -14.7274     0.0000    96.0000 </r>
       <r>   -14.6369     0.0000    96.0000 </r>
       <r>   -14.5464     0.0000    96.0000 </r>
       <r>   -14.4559     0.0000    96.0000 </r>
       <r>   -14.3654     0.0000    96.0000 </r>
       <r>   -14.2749     0.0000    96.0000 </r>
       <r>   -14.1844     0.0000    96.0000 </r>
       <r>   -14.0939    22.0971    98.0000 </r>
       <r>   -14.0033     0.0000    98.0000 </r>
       <r>   -13.9128     0.0000    98.0000 </r>
       <r>   -13.8223     0.0000    98.0000 </r>
       <r>   -13.7318     0.0000    98.0000 </r>
       <r>   -13.6413     0.0000    98.0000 </r>
       <r>   -13.5508     0.0000    98.0000 </r>
       <r>   -13.4603     0.0000    98.0000 </r>
       <r>   -13.3698     0.0000    98.0000 </r>
       <r>   -13.2793     0.0000    98.0000 </r>
       <r>   -13.1888     4.7353    98.4286 </r>
       <r>   -13.0982    59.2816   105.3656 </r>
       <r>   -13.0077    40.9125   109.7101 </r>
       <r>   -12.9172    66.1819   115.9901 </r>
       <r>   -12.8267     0.0135   116.0012 </r>
       <r>   -12.7362    44.1805   120.0000 </r>
       <r>   -12.6457     0.0000   120.0000 </r>
       <r>   -12.5552    22.0971   122.0000 </r>
       <r>   -12.4647    44.1509   125.9961 </r>
       <r>   -12.3742    15.1535   127.3715 </r>
       <r>   -12.2837    43.6310   131.9490 </r>
       <r>   -12.1931     0.1583   132.0143 </r>
       <r>   -12.1026    21.9388   134.0000 </r>
       <r>   -12.0121     0.0000   134.0000 </r>
       <r>   -11.9216     0.0452   134.0041 </r>
       <r>   -11.8311    44.1489   138.0000 </r>
       <r>   -11.7406    72.5562   144.5670 </r>
       <r>   -11.6501    42.2664   149.8255 </r>
       <r>   -11.5596    22.0604   152.0090 </r>
       <r>   -11.4691    21.9980   154.0000 </r>
       <r>   -11.3786    22.0971   156.0000 </r>
       <r>   -11.2881     0.0000   156.0000 </r>
       <r>   -11.1975    14.8218   157.3415 </r>
       <r>   -11.1070    21.9312   159.9850 </r>
       <r>   -11.0165    44.1889   164.0000 </r>
       <r>   -10.9260    24.0313   166.1751 </r>
       <r>   -10.8355     0.0000   168.0000 </r>
       <r>   -10.7450     0.0000   168.0000 </r>
       <r>   -10.6545    22.0969   170.0000 </r>
       <r>   -10.5640     0.0000   170.0000 </r>
       <r>   -10.4735     1.1415   170.1033 </r>
       <r>   -10.3830    43.0527   174.0000 </r>
       <r>   -10.2924    22.0970   176.0000 </r>
       <r>   -10.2019    39.9169   179.6129 </r>
       <r>   -10.1114     0.0000   180.0000 </r>
       <r>   -10.0209     0.0000   180.0000 </r>
       <r>    -9.9304     0.0000   180.0000 </r>
       <r>    -9.8399    22.0971   182.0000 </r>
       <r>    -9.7494    43.7449   185.9593 </r>
       <r>    -9.6589    44.0800   189.9902 </r>
       <r>    -9.5684    21.9230   191.9842 </r>
       <r>    -9.4779    44.5292   196.0305 </r>
       <r>    -9.3873    21.6979   198.0000 </r>
       <r>    -9.2968    45.4858   202.1169 </r>
       <r>    -9.2063   177.2316   218.1581 </r>
       <r>    -9.1158    54.2742   228.9123 </r>
       <r>    -9.0253    43.8596   235.9915 </r>
       <r>    -8.9348    22.0970   238.0000 </r>
       <r>    -8.8443    13.6064   239.2315 </r>
       <r>    -8.7538    22.0971   242.0000 </r>
       <r>    -8.6633     1.7364   242.1572 </r>
       <r>    -8.5728     0.0000   244.0000 </r>
       <r>    -8.4823    29.7286   246.6907 </r>
       <r>    -8.3917    22.0971   250.0000 </r>
       <r>    -8.3012    22.0951   251.9998 </r>
       <r>    -8.2107    23.8655   254.1601 </r>
       <r>    -8.1202    78.3626   263.1600 </r>
       <r>    -8.0297    19.4286   265.7585 </r>
       <r>    -7.9392    43.2648   269.9159 </r>
       <r>    -7.8487    39.6076   273.5849 </r>
       <r>    -7.7582    66.3272   282.0033 </r>
       <r>    -7.6677   108.2719   291.8029 </r>
       <r>    -7.5772    44.1940   298.0000 </r>
       <r>    -7.4866     0.0000   298.0000 </r>
       <r>    -7.3961    67.2053   304.0827 </r>
       <r>    -7.3056    43.2800   308.0000 </r>
       <r>    -7.2151    22.0971   310.0000 </r>
       <r>    -7.1246     0.0000   310.0000 </r>
       <r>    -7.0341     0.0000   310.0000 </r>
       <r>    -6.9436     0.0000   310.0000 </r>
       <r>    -6.8531     0.0737   310.0067 </r>
       <r>    -6.7626    29.3606   312.6641 </r>
       <r>    -6.6721     0.0000   314.0000 </r>
       <r>    -6.5815    44.1917   317.9998 </r>
       <r>    -6.4910    73.4715   324.6499 </r>
       <r>    -6.4005   124.1054   337.2327 </r>
       <r>    -6.3100    63.4064   343.7389 </r>
       <r>    -6.2195     0.0000   344.0000 </r>
       <r>    -6.1290     0.0769   344.0070 </r>
       <r>    -6.0385    22.0202   346.0000 </r>
       <r>    -5.9480    22.0816   347.9986 </r>
       <r>    -5.8575    79.8678   355.2291 </r>
       <r>    -5.7670    43.0108   359.8929 </r>
       <r>    -5.6764     0.0000   360.0000 </r>
       <r>    -5.5859     0.0000   360.0000 </r>
       <r>    -5.4954    22.0971   362.0000 </r>
       <r>    -5.4049     0.0000   362.0000 </r>
       <r>    -5.3144     0.0000   362.0000 </r>
       <r>    -5.2239     7.5866   362.6867 </r>
       <r>    -5.1334    75.6943   370.8550 </r>
       <r>    -5.0429    22.0969   374.0000 </r>
       <r>    -4.9524    24.0790   376.1794 </r>
       <r>    -4.8619    66.2912   384.0000 </r>
       <r>    -4.7714     0.0000   384.0000 </r>
       <r>    -4.6808    22.0971   386.0000 </r>
       <r>    -4.5903     0.0000   386.0000 </r>
       <r>    -4.4998     0.0000   386.0000 </r>
       <r>    -4.4093     0.0000   386.0000 </r>
       <r>    -4.3188     0.0000   386.0000 </r>
       <r>    -4.2283     0.0000   386.0000 </r>
       <r>    -4.1378     0.0000   386.0000 </r>
       <r>    -4.0473     0.0000   386.0000 </r>
       <r>    -3.9568     0.0000   386.0000 </r>
       <r>    -3.8663     0.0000   386.0000 </r>
       <r>    -3.7757     0.0000   386.0000 </r>
       <r>    -3.6852     0.0000   386.0000 </r>
       <r>    -3.5947     0.0000   386.0000 </r>
       <r>    -3.5042     0.0000   386.0000 </r>
       <r>    -3.4137     0.0000   386.0000 </r>
       <r>    -3.3232     0.0000   386.0000 </r>
       <r>    -3.2327     0.0000   386.0000 </r>
       <r>    -3.1422     0.0000   386.0000 </r>
       <r>    -3.0517     0.0000   386.0000 </r>
       <r>    -2.9612     0.0000   386.0000 </r>
       <r>    -2.8706     0.0000   386.0000 </r>
       <r>    -2.7801     0.0000   386.0000 </r>
       <r>    -2.6896     0.0000   386.0000 </r>
       <r>    -2.5991     0.0000   386.0000 </r>
       <r>    -2.5086     0.0000   386.0000 </r>
       <r>    -2.4181     0.0000   386.0000 </r>
       <r>    -2.3276     0.0000   386.0000 </r>
       <r>    -2.2371     0.0000   386.0000 </r>
       <r>    -2.1466     0.0000   386.0000 </r>
       <r>    -2.0561     0.0000   386.0000 </r>
       <r>    -1.9656     0.0000   386.0000 </r>
       <r>    -1.8750     0.0000   386.0000 </r>
       <r>    -1.7845     0.0000   386.0000 </r>
       <r>    -1.6940     0.0000   386.0000 </r>
       <r>    -1.6035     0.0000   386.0000 </r>
       <r>    -1.5130     0.0000   386.0000 </r>
       <r>    -1.4225     0.0000   386.0000 </r>
       <r>    -1.3320     1.0479   386.0948 </r>
       <r>    -1.2415    21.0492   388.0000 </r>
       <r>    -1.1510    22.0971   390.0000 </r>
       <r>    -1.0605     0.0000   390.0000 </r>
       <r>    -0.9699     0.0000   390.0000 </r>
       <r>    -0.8794     0.0000   390.0000 </r>
       <r>    -0.7889     0.0000   390.0000 </r>
       <r>    -0.6984     0.0000   390.0000 </r>
       <r>    -0.6079     0.0000   390.0000 </r>
       <r>    -0.5174     0.0000   390.0000 </r>
       <r>    -0.4269     0.0000   390.0000 </r>
       <r>    -0.3364     0.0000   390.0000 </r>
       <r>    -0.2459     0.0000   390.0000 </r>
       <r>    -0.1554     0.0000   390.0000 </r>
       <r>    -0.0648     0.0000   390.0000 </r>
       <r>     0.0257     0.0004   390.0000 </r>
       <r>     0.1162    22.0967   392.0000 </r>
       <r>     0.2067    12.9257   393.1699 </r>
       <r>     0.2972    72.4281   400.5554 </r>
       <r>     0.3877    24.3870   406.2073 </r>
       <r>     0.4782    30.9636   410.8025 </r>
       <r>     0.5687    22.0971   414.0000 </r>
       <r>     0.6592    22.0971   416.0000 </r>
       <r>     0.7497    26.1002   418.3623 </r>
       <r>     0.8403    99.8843   429.0405 </r>
       <r>     0.9308    44.1159   434.0000 </r>
       <r>     1.0213    36.1229   437.2695 </r>
       <r>     1.1118    25.9389   440.3477 </r>
       <r>     1.2023     0.0000   442.0000 </r>
       <r>     1.2928     0.0000   442.0000 </r>
       <r>     1.3833     0.0000   442.0000 </r>
       <r>     1.4738     0.0263   442.0024 </r>
       <r>     1.5643    22.0708   444.0000 </r>
       <r>     1.6548     0.1061   444.0096 </r>
       <r>     1.7453   118.0097   454.6906 </r>
       <r>     1.8359    46.2892   460.1896 </r>
       <r>     1.9264   137.6900   472.6520 </r>
       <r>     2.0169    23.2283   476.1024 </r>
       <r>     2.1074    46.2399   480.2875 </r>
       <r>     2.1979    66.2643   488.0000 </r>
       <r>     2.2884     0.0000   488.0000 </r>
       <r>     2.3789     0.0000   488.0000 </r>
       <r>     2.4694     0.0000   488.0000 </r>
       <r>     2.5599     0.0000   488.0000 </r>
       <r>     2.6504     0.0000   488.0000 </r>
       <r>     2.7410     0.0000   488.0000 </r>
       <r>     2.8315     0.0000   488.0000 </r>
       <r>     2.9220     0.0000   488.0000 </r>
       <r>     3.0125     0.0000   488.0000 </r>
       <r>     3.1030     0.0000   488.0000 </r>
       <r>     3.1935     0.0000   488.0000 </r>
       <r>     3.2840     0.0000   488.0000 </r>
       <r>     3.3745     0.0000   488.0000 </r>
      </set>
     </set>
    </array>
   </total>
  </dos>
 </calculation>
 <structure name="finalpos" >
  <crystal>
   <varray name="basis" >
    <v>      17.59966831       0.00000000       0.00000000 </v>
    <v>      -8.79983416      15.24175986       0.00000000 </v>
    <v>       0.00000000       0.00000000      19.92151445 </v>
   </varray>
   <i name="volume">   5343.94461817 </i>
   <varray name="rec_basis" >
    <v>       0.05681925       0.03280461       0.00000000 </v>
    <v>       0.00000000       0.06560922       0.00000000 </v>
    <v>       0.00000000       0.00000000       0.05019699 </v>
   </varray>
  </crystal>
  <varray name="positions" >
   <v>       0.99943010       0.00005992       0.50000000 </v>
   <v>       0.14164706       0.99871895       0.50000000 </v>
   <v>       0.28492260       0.99841663       0.50000000 </v>
   <v>       0.42850047       0.99871895       0.50000000 </v>
   <v>       0.57205839       0.00005992       0.50000000 </v>
   <v>       0.71530655       0.00214292       0.50000000 </v>
   <v>       0.85826494       0.00214292       0.50000000 </v>
   <v>       0.00080792       0.14408264       0.50000000 </v>
   <v>       0.14259355       0.14244783       0.50000000 </v>
   <v>       0.28470221       0.14112972       0.50000000 </v>
   <v>       0.42785608       0.14112972       0.50000000 </v>
   <v>       0.57128286       0.14244783       0.50000000 </v>
   <v>       0.71470329       0.14408264       0.50000000 </v>
   <v>       0.85805263       0.14467669       0.50000000 </v>
   <v>       0.00095476       0.28713011       0.50000000 </v>
   <v>       0.14372552       0.28645370       0.50000000 </v>
   <v>       0.28540977       0.28469374       0.50000000 </v>
   <v>       0.42724431       0.28306005       0.50000000 </v>
   <v>       0.57071254       0.28469374       0.50000000 </v>
   <v>       0.71415674       0.28645370       0.50000000 </v>
   <v>       0.85760392       0.28713011       0.50000000 </v>
   <v>       0.00054479       0.42966101       0.50000000 </v>
   <v>       0.14422690       0.42957551       0.50000000 </v>
   <v>       0.28730213       0.42918005       0.50000000 </v>
   <v>       0.42797654       0.42569726       0.50000000 </v>
   <v>       0.56914930       0.42569726       0.50000000 </v>
   <v>       0.71330650       0.42918005       0.50000000 </v>
   <v>       0.85677719       0.42957551       0.50000000 </v>
   <v>       0.99928255       0.57181462       0.50000000 </v>
   <v>       0.14396064       0.57181462       0.50000000 </v>
   <v>       0.28862787       0.57181625       0.50000000 </v>
   <v>       0.43313209       0.57215564       0.50000000 </v>
   <v>       0.71045212       0.57215564       0.50000000 </v>
   <v>       0.85461695       0.57181625       0.50000000 </v>
   <v>       0.99707234       0.71370518       0.50000000 </v>
   <v>       0.14255519       0.71368182       0.50000000 </v>
   <v>       0.28806142       0.71370518       0.50000000 </v>
   <v>       0.43464191       0.71382540       0.50000000 </v>
   <v>       0.58510826       0.71626937       0.50000000 </v>
   <v>       0.70258968       0.71626937       0.50000000 </v>
   <v>       0.85061206       0.71382540       0.50000000 </v>
   <v>       0.99777175       0.85613493       0.50000000 </v>
   <v>       0.14160898       0.85591288       0.50000000 </v>
   <v>       0.28573247       0.85591288       0.50000000 </v>
   <v>       0.42979175       0.85613493       0.50000000 </v>
   <v>       0.57342541       0.85758690       0.50000000 </v>
   <v>       0.71640633       0.86138410       0.50000000 </v>
   <v>       0.85559006       0.85758690       0.50000000 </v>
   <v>       0.04754270       0.09547788       0.50000000 </v>
   <v>       0.18957833       0.09405657       0.50000000 </v>
   <v>       0.33254182       0.09365506       0.50000000 </v>
   <v>       0.47590681       0.09405657       0.50000000 </v>
   <v>       0.61936376       0.09547788       0.50000000 </v>
   <v>       0.76280004       0.09719274       0.50000000 </v>
   <v>       0.90582126       0.09719274       0.50000000 </v>
   <v>       0.04854983       0.23934281       0.50000000 </v>
   <v>       0.19048138       0.23782962       0.50000000 </v>
   <v>       0.33234878       0.23634667       0.50000000 </v>
   <v>       0.47542646       0.23634667       0.50000000 </v>
   <v>       0.61877681       0.23782962       0.50000000 </v>
   <v>       0.76222155       0.23934281       0.50000000 </v>
   <v>       0.90562797       0.23982737       0.50000000 </v>
   <v>       0.04871288       0.38232824       0.50000000 </v>
   <v>       0.19188940       0.38184213       0.50000000 </v>
   <v>       0.33352206       0.38013969       0.50000000 </v>
   <v>       0.47472270       0.37801683       0.50000000 </v>
   <v>       0.61804620       0.38013969       0.50000000 </v>
   <v>       0.76138130       0.38184213       0.50000000 </v>
   <v>       0.90504393       0.38232824       0.50000000 </v>
   <v>       0.04810654       0.52478452       0.50000000 </v>
   <v>       0.19263929       0.52476864       0.50000000 </v>
   <v>       0.33696521       0.52455433       0.50000000 </v>
   <v>       0.47833704       0.52146721       0.50000000 </v>
   <v>       0.61455874       0.52146721       0.50000000 </v>
   <v>       0.75901769       0.52455433       0.50000000 </v>
   <v>       0.90355792       0.52476864       0.50000000 </v>
   <v>       0.04642473       0.66685228       0.50000000 </v>
   <v>       0.19185612       0.66685228       0.50000000 </v>
   <v>       0.33777931       0.66688794       0.50000000 </v>
   <v>       0.48615700       0.66710760       0.50000000 </v>
   <v>       0.75237918       0.66710760       0.50000000 </v>
   <v>       0.90053720       0.66688794       0.50000000 </v>
   <v>       0.04582562       0.80879365       0.50000000 </v>
   <v>       0.19009580       0.80876303       0.50000000 </v>
   <v>       0.33439660       0.80879365       0.50000000 </v>
   <v>       0.47844872       0.80953888       0.50000000 </v>
   <v>       0.62209487       0.81129474       0.50000000 </v>
   <v>       0.76062845       0.81129474       0.50000000 </v>
   <v>       0.90195054       0.80897069       0.50000000 </v>
   <v>       0.04629157       0.95154386       0.50000000 </v>
   <v>       0.18948291       0.95113037       0.50000000 </v>
   <v>       0.33307603       0.95113037       0.50000000 </v>
   <v>       0.47668087       0.95154386       0.50000000 </v>
   <v>       0.62015751       0.95313740       0.50000000 </v>
   <v>       0.76355772       0.95568687       0.50000000 </v>
   <v>       0.90440847       0.95313740       0.50000000 </v>
   <v>       0.56830873       0.56518888       0.50000000 </v>
  </varray>
 </structure>
</modeling>
