<?xml version="1.0" encoding="ISO-8859-1"?>
<modeling>
 <generator>
  <i name="program" type="string">vasp </i>
  <i name="version" type="string">5.4.4.18Apr17-6-g9f103f2a35  </i>
  <i name="subversion" type="string">(build Oct 18 2020 22:16:12) gamma-only         parallel </i>
  <i name="platform" type="string">UA-vaughan-2020a </i>
  <i name="date" type="string">2023 03 21 </i>
  <i name="time" type="string">17:32:13 </i>
 </generator>
 <incar>
  <i type="string" name="PREC">accurate</i>
  <i type="int" name="IALGO">    38</i>
  <i type="logical" name="ADDGRID"> T  </i>
  <i type="int" name="NELMIN">     5</i>
  <i type="int" name="IBRION">    -1</i>
  <i name="EDIFF">      0.00000001</i>
  <i name="EDIFFG">     -0.00000001</i>
  <i type="int" name="NSW">     0</i>
  <i type="int" name="ISIF">     2</i>
  <i name="ENCUT">    500.00000000</i>
  <i type="logical" name="LREAL"> F  </i>
  <i type="int" name="ISMEAR">     0</i>
  <i name="SIGMA">      0.01000000</i>
  <i type="logical" name="LWAVE"> F  </i>
  <i type="logical" name="LCHARG"> F  </i>
  <v type="int" name="KPOINT_BSE">    -1     0     0     0</v>
 </incar>
 <structure name="primitive_cell" >
  <crystal>
   <varray name="basis" >
    <v>      17.59966831       0.00000000       0.00000000 </v>
    <v>      -8.79983416      15.24175986       0.00000000 </v>
    <v>       0.00000000       0.00000000      19.92151445 </v>
   </varray>
   <i name="volume">   5343.94461817 </i>
   <varray name="rec_basis" >
    <v>       0.05681925       0.03280461       0.00000000 </v>
    <v>       0.00000000       0.06560922       0.00000000 </v>
    <v>       0.00000000       0.00000000       0.05019699 </v>
   </varray>
  </crystal>
  <varray name="positions" >
   <v>      -0.00056990       0.00005992      -0.50000000 </v>
   <v>      -0.09559153      -0.04686260      -0.50000000 </v>
   <v>       0.04629157      -0.04845614      -0.50000000 </v>
   <v>       0.04754270       0.09547788      -0.50000000 </v>
   <v>      -0.14173506       0.00214292      -0.50000000 </v>
   <v>       0.14164706      -0.00071285      -0.50000000 </v>
   <v>       0.14259355       0.14244783      -0.50000000 </v>
   <v>      -0.00222825      -0.14386507      -0.50000000 </v>
   <v>      -0.14440994      -0.14241310      -0.50000000 </v>
   <v>       0.00080792       0.14408264      -0.50000000 </v>
   <v>       0.18957833       0.09405657      -0.50000000 </v>
   <v>      -0.09417874       0.09719274      -0.50000000 </v>
   <v>      -0.09804946      -0.19102931      -0.50000000 </v>
   <v>      -0.23644228      -0.04431313      -0.50000000 </v>
   <v>      -0.23937155      -0.18870526      -0.50000000 </v>
   <v>       0.19048138       0.23782962      -0.50000000 </v>
   <v>       0.04582562      -0.19120635      -0.50000000 </v>
   <v>       0.18948291      -0.04886963      -0.50000000 </v>
   <v>       0.04854983       0.23934281      -0.50000000 </v>
   <v>      -0.28359367      -0.13861590      -0.50000000 </v>
   <v>       0.28470221       0.14112972      -0.50000000 </v>
   <v>      -0.14194737       0.14467669      -0.50000000 </v>
   <v>      -0.14938794      -0.28617460      -0.50000000 </v>
   <v>       0.14160898      -0.14408712      -0.50000000 </v>
   <v>       0.14372552       0.28645370      -0.50000000 </v>
   <v>      -0.28469345       0.00214292      -0.50000000 </v>
   <v>      -0.00292766      -0.28629482      -0.50000000 </v>
   <v>       0.28540977       0.28469374      -0.50000000 </v>
   <v>       0.00095476       0.28713011      -0.50000000 </v>
   <v>       0.28492260      -0.00158337      -0.50000000 </v>
   <v>      -0.29741032      -0.28373063      -0.50000000 </v>
   <v>      -0.09946280      -0.33311206      -0.50000000 </v>
   <v>       0.33234878       0.23634667      -0.50000000 </v>
   <v>      -0.23719996       0.09719274      -0.50000000 </v>
   <v>       0.33254182       0.09365506      -0.50000000 </v>
   <v>      -0.09437203       0.23982737      -0.50000000 </v>
   <v>      -0.24762082      -0.33289240      -0.50000000 </v>
   <v>      -0.37790513      -0.18870526      -0.50000000 </v>
   <v>       0.19188940       0.38184213      -0.50000000 </v>
   <v>       0.19009580      -0.19123697      -0.50000000 </v>
   <v>      -0.37984249      -0.04686260      -0.50000000 </v>
   <v>       0.04642473      -0.33314772      -0.50000000 </v>
   <v>       0.33352206       0.38013969      -0.50000000 </v>
   <v>       0.04871288       0.38232824      -0.50000000 </v>
   <v>       0.33307603      -0.04886963      -0.50000000 </v>
   <v>      -0.41489174      -0.28373063      -0.50000000 </v>
   <v>      -0.42657459      -0.14241310      -0.50000000 </v>
   <v>       0.42724431       0.28306005      -0.50000000 </v>
   <v>      -0.14538305      -0.42818375      -0.50000000 </v>
   <v>      -0.28529671       0.14408264      -0.50000000 </v>
   <v>      -0.28954788      -0.42784436      -0.50000000 </v>
   <v>       0.42785608       0.14112972      -0.50000000 </v>
   <v>      -0.14239608       0.28713011      -0.50000000 </v>
   <v>       0.14422690       0.42957551      -0.50000000 </v>
   <v>       0.28730213       0.42918005      -0.50000000 </v>
   <v>       0.14255519      -0.28631818      -0.50000000 </v>
   <v>       0.28573247      -0.14408712      -0.50000000 </v>
   <v>      -0.24098231      -0.47544567      -0.50000000 </v>
   <v>       0.47542646       0.23634667      -0.50000000 </v>
   <v>      -0.23777845       0.23934281      -0.50000000 </v>
   <v>       0.42797654       0.42569726      -0.50000000 </v>
   <v>      -0.42794161       0.00005992      -0.50000000 </v>
   <v>      -0.00071745      -0.42818538      -0.50000000 </v>
   <v>       0.00054479       0.42966101      -0.50000000 </v>
   <v>       0.42850047      -0.00128105      -0.50000000 </v>
   <v>      -0.43169127      -0.43481112      -0.50000000 </v>
   <v>       0.47472270       0.37801683      -0.50000000 </v>
   <v>      -0.09644208      -0.47523136      -0.50000000 </v>
   <v>      -0.38063624       0.09547788      -0.50000000 </v>
   <v>       0.47590681       0.09405657      -0.50000000 </v>
   <v>      -0.09495607       0.38232824      -0.50000000 </v>
   <v>      -0.38544126      -0.47853279      -0.50000000 </v>
   <v>       0.48615700      -0.33289240      -0.50000000 </v>
   <v>       0.47844872      -0.19102931      -0.50000000 </v>
   <v>       0.19263929      -0.47523136      -0.50000000 </v>
   <v>       0.33696521      -0.47544567      -0.50000000 </v>
   <v>       0.19185612      -0.33314772      -0.50000000 </v>
   <v>       0.33439660      -0.19120635      -0.50000000 </v>
   <v>       0.43464191      -0.28617460      -0.50000000 </v>
   <v>      -0.28669350       0.42918005      -0.50000000 </v>
   <v>      -0.42928746       0.28469374      -0.50000000 </v>
   <v>      -0.28584326       0.28645370      -0.50000000 </v>
   <v>       0.28862787      -0.42818375      -0.50000000 </v>
   <v>       0.28806142      -0.28629482      -0.50000000 </v>
   <v>       0.47668087      -0.04845614      -0.50000000 </v>
   <v>       0.47833704      -0.47853279      -0.50000000 </v>
   <v>       0.04810654      -0.47521548      -0.50000000 </v>
   <v>       0.43313209      -0.42784436      -0.50000000 </v>
   <v>       0.42979175      -0.14386507      -0.50000000 </v>
   <v>      -0.43085070       0.42569726      -0.50000000 </v>
   <v>      -0.14322281       0.42957551      -0.50000000 </v>
   <v>      -0.42871714       0.14244783      -0.50000000 </v>
   <v>       0.14396064      -0.42818538      -0.50000000 </v>
   <v>      -0.23861870       0.38184213      -0.50000000 </v>
   <v>      -0.38122319       0.23782962      -0.50000000 </v>
   <v>      -0.38195380       0.38013969      -0.50000000 </v>
   <v>       0.33777931      -0.33311206      -0.50000000 </v>
  </varray>
 </structure>
 <varray name="primitive_index" >
  <v type="int" >        1 </v>
  <v type="int" >       96 </v>
  <v type="int" >       90 </v>
  <v type="int" >       49 </v>
  <v type="int" >        7 </v>
  <v type="int" >        2 </v>
  <v type="int" >        9 </v>
  <v type="int" >       42 </v>
  <v type="int" >       48 </v>
  <v type="int" >        8 </v>
  <v type="int" >       50 </v>
  <v type="int" >       55 </v>
  <v type="int" >       89 </v>
  <v type="int" >       95 </v>
  <v type="int" >       88 </v>
  <v type="int" >       57 </v>
  <v type="int" >       83 </v>
  <v type="int" >       91 </v>
  <v type="int" >       56 </v>
  <v type="int" >       47 </v>
  <v type="int" >       10 </v>
  <v type="int" >       14 </v>
  <v type="int" >       41 </v>
  <v type="int" >       43 </v>
  <v type="int" >       16 </v>
  <v type="int" >        6 </v>
  <v type="int" >       35 </v>
  <v type="int" >       17 </v>
  <v type="int" >       15 </v>
  <v type="int" >        3 </v>
  <v type="int" >       40 </v>
  <v type="int" >       82 </v>
  <v type="int" >       58 </v>
  <v type="int" >       54 </v>
  <v type="int" >       51 </v>
  <v type="int" >       62 </v>
  <v type="int" >       81 </v>
  <v type="int" >       87 </v>
  <v type="int" >       64 </v>
  <v type="int" >       84 </v>
  <v type="int" >       94 </v>
  <v type="int" >       77 </v>
  <v type="int" >       65 </v>
  <v type="int" >       63 </v>
  <v type="int" >       92 </v>
  <v type="int" >       39 </v>
  <v type="int" >       46 </v>
  <v type="int" >       18 </v>
  <v type="int" >       34 </v>
  <v type="int" >       13 </v>
  <v type="int" >       33 </v>
  <v type="int" >       11 </v>
  <v type="int" >       21 </v>
  <v type="int" >       23 </v>
  <v type="int" >       24 </v>
  <v type="int" >       36 </v>
  <v type="int" >       44 </v>
  <v type="int" >       75 </v>
  <v type="int" >       59 </v>
  <v type="int" >       61 </v>
  <v type="int" >       25 </v>
  <v type="int" >        5 </v>
  <v type="int" >       29 </v>
  <v type="int" >       22 </v>
  <v type="int" >        4 </v>
  <v type="int" >       97 </v>
  <v type="int" >       66 </v>
  <v type="int" >       76 </v>
  <v type="int" >       53 </v>
  <v type="int" >       52 </v>
  <v type="int" >       69 </v>
  <v type="int" >       74 </v>
  <v type="int" >       80 </v>
  <v type="int" >       86 </v>
  <v type="int" >       71 </v>
  <v type="int" >       72 </v>
  <v type="int" >       78 </v>
  <v type="int" >       85 </v>
  <v type="int" >       38 </v>
  <v type="int" >       27 </v>
  <v type="int" >       19 </v>
  <v type="int" >       20 </v>
  <v type="int" >       31 </v>
  <v type="int" >       37 </v>
  <v type="int" >       93 </v>
  <v type="int" >       73 </v>
  <v type="int" >       70 </v>
  <v type="int" >       32 </v>
  <v type="int" >       45 </v>
  <v type="int" >       26 </v>
  <v type="int" >       28 </v>
  <v type="int" >       12 </v>
  <v type="int" >       30 </v>
  <v type="int" >       68 </v>
  <v type="int" >       60 </v>
  <v type="int" >       67 </v>
  <v type="int" >       79 </v>
 </varray>
 <kpoints>
  <generation param="Gamma">
   <v type="int" name="divisions">       1        1        1 </v>
   <v name="usershift">      0.00000000       0.00000000       0.00000000 </v>
   <v name="genvec1">      1.00000000      -0.00000000       0.00000000 </v>
   <v name="genvec2">      0.00000000       1.00000000       0.00000000 </v>
   <v name="genvec3">      0.00000000       0.00000000       1.00000000 </v>
   <v name="shift">      0.00000000       0.00000000       0.00000000 </v>
  </generation>
  <varray name="kpointlist" >
   <v>       0.00000000       0.00000000       0.00000000 </v>
  </varray>
  <varray name="weights" >
   <v>       1.00000000 </v>
  </varray>
 </kpoints>
 <parameters>
  <separator name="general" >
   <i type="string" name="SYSTEM">unknown system</i>
   <i type="logical" name="LCOMPAT"> F  </i>
  </separator>
  <separator name="electronic" >
   <i type="string" name="PREC">accura</i>
   <i name="ENMAX">    500.00000000</i>
   <i name="ENAUG">    644.87300000</i>
   <i name="EDIFF">      0.00000001</i>
   <i type="int" name="IALGO">    38</i>
   <i type="int" name="IWAVPR">    10</i>
   <i type="int" name="NBANDS">   244</i>
   <i name="NELECT">    388.00000000</i>
   <i type="int" name="TURBO">     0</i>
   <i type="int" name="IRESTART">     0</i>
   <i type="int" name="NREBOOT">     0</i>
   <i type="int" name="NMIN">     0</i>
   <i name="EREF">      0.00000000</i>
   <separator name="electronic smearing" >
    <i type="int" name="ISMEAR">     0</i>
    <i name="SIGMA">      0.01000000</i>
    <i name="KSPACING">      0.50000000</i>
    <i type="logical" name="KGAMMA"> T  </i>
   </separator>
   <separator name="electronic projectors" >
    <i type="logical" name="LREAL"> F  </i>
    <v name="ROPT">      0.00000000      0.00000000      0.00000000</v>
    <i type="int" name="LMAXPAW">  -100</i>
    <i type="int" name="LMAXMIX">     2</i>
    <i type="logical" name="NLSPLINE"> F  </i>
   </separator>
   <separator name="electronic startup" >
    <i type="int" name="ISTART">     0</i>
    <i type="int" name="ICHARG">     2</i>
    <i type="int" name="INIWAV">     1</i>
   </separator>
   <separator name="electronic spin" >
    <i type="int" name="ISPIN">     1</i>
    <i type="logical" name="LNONCOLLINEAR"> F  </i>
    <v name="MAGMOM">      1.00000000      1.00000000      1.00000000      1.00000000      1.00000000      1.00000000      1.00000000      1.00000000      1.00000000      1.00000000      1.00000000      1.00000000      1.00000000      1.00000000      1.00000000      1.00000000      1.00000000      1.00000000      1.00000000      1.00000000
      1.00000000      1.00000000      1.00000000      1.00000000      1.00000000      1.00000000      1.00000000      1.00000000      1.00000000      1.00000000      1.00000000      1.00000000      1.00000000      1.00000000      1.00000000      1.00000000      1.00000000      1.00000000      1.00000000      1.00000000
      1.00000000      1.00000000      1.00000000      1.00000000      1.00000000      1.00000000      1.00000000      1.00000000      1.00000000      1.00000000      1.00000000      1.00000000      1.00000000      1.00000000      1.00000000      1.00000000      1.00000000      1.00000000      1.00000000      1.00000000
      1.00000000      1.00000000      1.00000000      1.00000000      1.00000000      1.00000000      1.00000000      1.00000000      1.00000000      1.00000000      1.00000000      1.00000000      1.00000000      1.00000000      1.00000000      1.00000000      1.00000000      1.00000000      1.00000000      1.00000000
      1.00000000      1.00000000      1.00000000      1.00000000      1.00000000      1.00000000      1.00000000      1.00000000      1.00000000      1.00000000      1.00000000      1.00000000      1.00000000      1.00000000      1.00000000      1.00000000      1.00000000</v>
    <i name="NUPDOWN">     -1.00000000</i>
    <i type="logical" name="LSORBIT"> F  </i>
    <v name="SAXIS">      0.00000000      0.00000000      1.00000000</v>
    <i type="logical" name="LSPIRAL"> F  </i>
    <v name="QSPIRAL">      0.00000000      0.00000000      0.00000000</v>
    <i type="logical" name="LZEROZ"> F  </i>
   </separator>
   <separator name="electronic exchange-correlation" >
    <i type="logical" name="LASPH"> F  </i>
    <i type="logical" name="LMETAGGA"> F  </i>
   </separator>
   <separator name="electronic convergence" >
    <i type="int" name="NELM">    60</i>
    <i type="int" name="NELMDL">    -5</i>
    <i type="int" name="NELMIN">     5</i>
    <i name="ENINI">    500.00000000</i>
    <separator name="electronic convergence detail" >
     <i type="logical" name="LDIAG"> T  </i>
     <i type="logical" name="LSUBROT"> F  </i>
     <i name="WEIMIN">      0.00000000</i>
     <i name="EBREAK">      0.00000000</i>
     <i name="DEPER">      0.30000000</i>
     <i type="int" name="NRMM">     4</i>
     <i name="TIME">      0.40000000</i>
    </separator>
   </separator>
   <separator name="electronic mixer" >
    <i name="AMIX">      0.40000000</i>
    <i name="BMIX">      1.00000000</i>
    <i name="AMIN">      0.10000000</i>
    <i name="AMIX_MAG">      1.60000000</i>
    <i name="BMIX_MAG">      1.00000000</i>
    <separator name="electronic mixer details" >
     <i type="int" name="IMIX">     4</i>
     <i type="logical" name="MIXFIRST"> F  </i>
     <i type="int" name="MAXMIX">   -45</i>
     <i name="WC">    100.00000000</i>
     <i type="int" name="INIMIX">     1</i>
     <i type="int" name="MIXPRE">     1</i>
     <i type="int" name="MREMOVE">     5</i>
    </separator>
   </separator>
   <separator name="electronic dipolcorrection" >
    <i type="logical" name="LDIPOL"> F  </i>
    <i type="logical" name="LMONO"> F  </i>
    <i type="int" name="IDIPOL">     0</i>
    <i name="EPSILON">      1.00000000</i>
    <v name="DIPOL">   -100.00000000   -100.00000000   -100.00000000</v>
    <i name="EFIELD">      0.00000000</i>
   </separator>
  </separator>
  <separator name="grids" >
   <i type="int" name="NGX">   128</i>
   <i type="int" name="NGY">   128</i>
   <i type="int" name="NGZ">   150</i>
   <i type="int" name="NGXF">   256</i>
   <i type="int" name="NGYF">   256</i>
   <i type="int" name="NGZF">   300</i>
   <i type="logical" name="ADDGRID"> T  </i>
  </separator>
  <separator name="ionic" >
   <i type="int" name="NSW">     0</i>
   <i type="int" name="IBRION">    -1</i>
   <i type="int" name="MDALGO">     0</i>
   <i type="int" name="ISIF">     2</i>
   <i name="PSTRESS">      0.00000000</i>
   <i name="EDIFFG">     -0.00000001</i>
   <i type="int" name="NFREE">     0</i>
   <i name="POTIM">      0.50000000</i>
   <i name="SMASS">     -3.00000000</i>
   <i name="SCALEE">      1.00000000</i>
  </separator>
  <separator name="ionic md" >
   <i name="TEBEG">      0.00010000</i>
   <i name="TEEND">      0.00010000</i>
   <i type="int" name="NBLOCK">     1</i>
   <i type="int" name="KBLOCK">     1</i>
   <i type="int" name="NPACO">   256</i>
   <i name="APACO">     16.00000000</i>
  </separator>
  <separator name="symmetry" >
   <i type="int" name="ISYM">     2</i>
   <i name="SYMPREC">      0.00001000</i>
  </separator>
  <separator name="dos" >
   <i type="int" name="LORBIT">     0</i>
   <v name="RWIGS">     -1.00000000     -1.00000000     -1.00000000</v>
   <i type="int" name="NEDOS">   301</i>
   <i name="EMIN">     10.00000000</i>
   <i name="EMAX">    -10.00000000</i>
   <i name="EFERMI">      0.00000000</i>
  </separator>
  <separator name="writing" >
   <i type="int" name="NWRITE">     2</i>
   <i type="logical" name="LWAVE"> F  </i>
   <i type="logical" name="LDOWNSAMPLE"> F  </i>
   <i type="logical" name="LCHARG"> F  </i>
   <i type="logical" name="LPARD"> F  </i>
   <i type="logical" name="LVTOT"> F  </i>
   <i type="logical" name="LVHAR"> F  </i>
   <i type="logical" name="LELF"> F  </i>
   <i type="logical" name="LOPTICS"> F  </i>
   <v name="STM">      0.00000000      0.00000000      0.00000000      0.00000000      0.00000000      0.00000000      0.00000000</v>
  </separator>
  <separator name="performance" >
   <i type="int" name="NPAR">     4</i>
   <i type="int" name="NSIM">     4</i>
   <i type="int" name="NBLK">    -1</i>
   <i type="logical" name="LPLANE"> T  </i>
   <i type="logical" name="LSCALAPACK"> T  </i>
   <i type="logical" name="LSCAAWARE"> F  </i>
   <i type="logical" name="LSCALU"> F  </i>
   <i type="logical" name="LASYNC"> F  </i>
   <i type="logical" name="LORBITALREAL"> F  </i>
  </separator>
  <separator name="miscellaneous" >
   <i type="int" name="IDIOT">     3</i>
   <i type="int" name="ISPECIAL">     0</i>
   <i type="logical" name="LMUSIC"> F  </i>
   <v name="POMASS">     10.81100000     14.00100000     12.01100000</v>
   <v name="DARWINR">      0.00000000      0.00000000      0.00000000</v>
   <v name="DARWINV">      1.00000000      1.00000000      1.00000000</v>
   <i type="logical" name="LCORR"> T  </i>
  </separator>
  <i type="logical" name="GGA_COMPAT"> T  </i>
  <i type="logical" name="LBERRY"> F  </i>
  <i type="int" name="ICORELEVEL">     0</i>
  <i type="logical" name="LDAU"> F  </i>
  <i type="int" name="I_CONSTRAINED_M">     0</i>
  <separator name="electronic exchange-correlation" >
   <i type="string" name="GGA">--</i>
   <i type="int" name="VOSKOWN">     0</i>
   <i type="logical" name="LHFCALC"> F  </i>
   <i type="string" name="PRECFOCK"></i>
   <i type="logical" name="LSYMGRAD"> F  </i>
   <i type="logical" name="LHFONE"> F  </i>
   <i type="logical" name="LRHFCALC"> F  </i>
   <i type="logical" name="LTHOMAS"> F  </i>
   <i type="logical" name="LMODELHF"> F  </i>
   <i name="ENCUT4O">     -1.00000000</i>
   <i type="int" name="EXXOEP">     0</i>
   <i type="int" name="FOURORBIT">     0</i>
   <i name="AEXX">      0.00000000</i>
   <i name="HFALPHA">      0.00000000</i>
   <i name="MCALPHA">      0.00000000</i>
   <i name="ALDAX">      1.00000000</i>
   <i name="AGGAX">      1.00000000</i>
   <i name="ALDAC">      1.00000000</i>
   <i name="AGGAC">      1.00000000</i>
   <i type="int" name="NKREDX">     1</i>
   <i type="int" name="NKREDY">     1</i>
   <i type="int" name="NKREDZ">     1</i>
   <i type="logical" name="SHIFTRED"> F  </i>
   <i type="logical" name="ODDONLY"> F  </i>
   <i type="logical" name="EVENONLY"> F  </i>
   <i type="int" name="LMAXFOCK">     0</i>
   <i type="int" name="NMAXFOCKAE">     0</i>
   <i type="logical" name="LFOCKAEDFT"> F  </i>
   <i name="HFSCREEN">      0.00000000</i>
   <i name="HFSCREENC">      0.00000000</i>
   <i type="int" name="NBANDSGWLOW">     0</i>
  </separator>
  <separator name="vdW DFT" >
   <i type="logical" name="LUSE_VDW"> F  </i>
   <i name="Zab_VDW">     -0.84910000</i>
   <i name="PARAM1">      0.12340000</i>
   <i name="PARAM2">      1.00000000</i>
   <i name="PARAM3">      0.00000000</i>
  </separator>
  <separator name="model GW" >
   <i type="int" name="MODEL_GW">     0</i>
   <i name="MODEL_EPS0">     33.05532754</i>
   <i name="MODEL_ALPHA">      1.00000000</i>
  </separator>
  <separator name="linear response parameters" >
   <i type="logical" name="LEPSILON"> F  </i>
   <i type="logical" name="LRPA"> F  </i>
   <i type="logical" name="LNABLA"> F  </i>
   <i type="logical" name="LVEL"> F  </i>
   <i type="int" name="KINTER">     0</i>
   <i name="CSHIFT">      0.10000000</i>
   <i name="OMEGAMAX">     -1.00000000</i>
   <i name="DEG_THRESHOLD">      0.00200000</i>
   <i name="RTIME">     -0.10000000</i>
   <i name="WPLASMAI">      0.00000000</i>
   <v name="DFIELD">      0.00000000      0.00000000      0.00000000</v>
   <v name="WPLASMA">      0.00000000      0.00000000      0.00000000      0.00000000      0.00000000      0.00000000      0.00000000      0.00000000      0.00000000</v>
  </separator>
  <separator name="orbital magnetization" >
   <i type="logical" name="NUCIND"> F  </i>
   <v name="MAGPOS">      0.00000000      0.00000000      0.00000000</v>
   <i type="logical" name="LNICSALL"> T  </i>
   <i type="logical" name="ORBITALMAG"> F  </i>
   <i type="logical" name="LMAGBLOCH"> F  </i>
   <i type="logical" name="LCHIMAG"> F  </i>
   <i type="logical" name="LGAUGE"> T  </i>
   <i type="int" name="MAGATOM">     0</i>
   <v name="MAGDIPOL">      0.00000000      0.00000000      0.00000000</v>
   <v name="AVECCONST">      0.00000000      0.00000000      0.00000000</v>
  </separator>
  <separator name="response functions" >
   <i type="logical" name="LADDER"> F  </i>
   <i type="logical" name="LRPAFORCE"> F  </i>
   <i type="logical" name="LFXC"> F  </i>
   <i type="logical" name="LHARTREE"> T  </i>
   <i type="int" name="IBSE">     0</i>
   <v type="int" name="KPOINT">    -1     0     0     0</v>
   <i type="logical" name="LTCTE"> F  </i>
   <i type="logical" name="LTETE"> F  </i>
   <i type="logical" name="LTRIPLET"> F  </i>
   <i type="logical" name="LFXCEPS"> F  </i>
   <i type="logical" name="LFXHEG"> F  </i>
   <i type="int" name="NATURALO">     2</i>
   <i type="logical" name="L2ORDER"> F  </i>
   <i type="logical" name="LMP2LT"> F  </i>
   <i type="logical" name="LUSEW"> F  </i>
   <i name="ENCUTGW">     -2.00000000</i>
   <i name="ENCUTGWSOFT">     -2.00000000</i>
   <i name="ENCUTLF">     -1.00000000</i>
   <i type="int" name="LMAXMP2">    -1</i>
   <i name="SCISSOR">      0.00000000</i>
   <i type="int" name="NOMEGA">     0</i>
   <i type="int" name="NOMEGAR">     0</i>
   <i type="int" name="NBANDSGW">    -1</i>
   <i type="int" name="NBANDSO">    -1</i>
   <i type="int" name="NBANDSV">    -1</i>
   <i type="int" name="NELM">     1</i>
   <i type="int" name="NELMHF">     1</i>
   <i type="int" name="DIM">     3</i>
   <i type="int" name="ANTIRES">     0</i>
   <i name="OMEGAMAX">    -30.00000000</i>
   <i name="OMEGAMIN">    -30.00000000</i>
   <i name="OMEGATL">   -200.00000000</i>
   <i type="int" name="OMEGAGRID">   140</i>
   <i name="CSHIFT">     -0.10000000</i>
   <i type="logical" name="SELFENERGY"> F  </i>
   <i type="logical" name="LSPECTRAL"> F  </i>
   <i type="logical" name="LSPECTRALGW"> F  </i>
   <i type="logical" name="LSINGLES"> F  </i>
   <i type="logical" name="LFERMIGW"> F  </i>
   <i type="logical" name="ODDONLYGW"> F  </i>
   <i type="logical" name="EVENONLYGW"> F  </i>
   <i type="int" name="NKREDLFX">     1</i>
   <i type="int" name="NKREDLFY">     1</i>
   <i type="int" name="NKREDLFZ">     1</i>
   <i type="int" name="MAXMEM">  2800</i>
   <i type="int" name="TELESCOPE">     0</i>
   <i type="int" name="TAUPAR">     1</i>
   <i type="int" name="OMEGAPAR">    -1</i>
   <i name="LAMBDA">      1.00000000</i>
  </separator>
  <separator name="External order field" >
   <i name="OFIELD_KAPPA">      0.00000000</i>
   <v name="OFIELD_K">      0.00000000      0.00000000      0.00000000</v>
   <i name="OFIELD_Q6_NEAR">      0.00000000</i>
   <i name="OFIELD_Q6_FAR">      0.00000000</i>
   <i name="OFIELD_A">      0.00000000</i>
  </separator>
 </parameters>
 <atominfo>
  <atoms>      97 </atoms>
  <types>       3 </types>
  <array name="atoms" >
   <dimension dim="1">ion</dimension>
   <field type="string">element</field>
   <field type="int">atomtype</field>
   <set>
    <rc><c>B </c><c>   1</c></rc>
    <rc><c>B </c><c>   1</c></rc>
    <rc><c>B </c><c>   1</c></rc>
    <rc><c>B </c><c>   1</c></rc>
    <rc><c>B </c><c>   1</c></rc>
    <rc><c>B </c><c>   1</c></rc>
    <rc><c>B </c><c>   1</c></rc>
    <rc><c>B </c><c>   1</c></rc>
    <rc><c>B </c><c>   1</c></rc>
    <rc><c>B </c><c>   1</c></rc>
    <rc><c>B </c><c>   1</c></rc>
    <rc><c>B </c><c>   1</c></rc>
    <rc><c>B </c><c>   1</c></rc>
    <rc><c>B </c><c>   1</c></rc>
    <rc><c>B </c><c>   1</c></rc>
    <rc><c>B </c><c>   1</c></rc>
    <rc><c>B </c><c>   1</c></rc>
    <rc><c>B </c><c>   1</c></rc>
    <rc><c>B </c><c>   1</c></rc>
    <rc><c>B </c><c>   1</c></rc>
    <rc><c>B </c><c>   1</c></rc>
    <rc><c>B </c><c>   1</c></rc>
    <rc><c>B </c><c>   1</c></rc>
    <rc><c>B </c><c>   1</c></rc>
    <rc><c>B </c><c>   1</c></rc>
    <rc><c>B </c><c>   1</c></rc>
    <rc><c>B </c><c>   1</c></rc>
    <rc><c>B </c><c>   1</c></rc>
    <rc><c>B </c><c>   1</c></rc>
    <rc><c>B </c><c>   1</c></rc>
    <rc><c>B </c><c>   1</c></rc>
    <rc><c>B </c><c>   1</c></rc>
    <rc><c>B </c><c>   1</c></rc>
    <rc><c>B </c><c>   1</c></rc>
    <rc><c>B </c><c>   1</c></rc>
    <rc><c>B </c><c>   1</c></rc>
    <rc><c>B </c><c>   1</c></rc>
    <rc><c>B </c><c>   1</c></rc>
    <rc><c>B </c><c>   1</c></rc>
    <rc><c>B </c><c>   1</c></rc>
    <rc><c>B </c><c>   1</c></rc>
    <rc><c>B </c><c>   1</c></rc>
    <rc><c>B </c><c>   1</c></rc>
    <rc><c>B </c><c>   1</c></rc>
    <rc><c>B </c><c>   1</c></rc>
    <rc><c>B </c><c>   1</c></rc>
    <rc><c>B </c><c>   1</c></rc>
    <rc><c>B </c><c>   1</c></rc>
    <rc><c>N </c><c>   2</c></rc>
    <rc><c>N </c><c>   2</c></rc>
    <rc><c>N </c><c>   2</c></rc>
    <rc><c>N </c><c>   2</c></rc>
    <rc><c>N </c><c>   2</c></rc>
    <rc><c>N </c><c>   2</c></rc>
    <rc><c>N </c><c>   2</c></rc>
    <rc><c>N </c><c>   2</c></rc>
    <rc><c>N </c><c>   2</c></rc>
    <rc><c>N </c><c>   2</c></rc>
    <rc><c>N </c><c>   2</c></rc>
    <rc><c>N </c><c>   2</c></rc>
    <rc><c>N </c><c>   2</c></rc>
    <rc><c>N </c><c>   2</c></rc>
    <rc><c>N </c><c>   2</c></rc>
    <rc><c>N </c><c>   2</c></rc>
    <rc><c>N </c><c>   2</c></rc>
    <rc><c>N </c><c>   2</c></rc>
    <rc><c>N </c><c>   2</c></rc>
    <rc><c>N </c><c>   2</c></rc>
    <rc><c>N </c><c>   2</c></rc>
    <rc><c>N </c><c>   2</c></rc>
    <rc><c>N </c><c>   2</c></rc>
    <rc><c>N </c><c>   2</c></rc>
    <rc><c>N </c><c>   2</c></rc>
    <rc><c>N </c><c>   2</c></rc>
    <rc><c>N </c><c>   2</c></rc>
    <rc><c>N </c><c>   2</c></rc>
    <rc><c>N </c><c>   2</c></rc>
    <rc><c>N </c><c>   2</c></rc>
    <rc><c>N </c><c>   2</c></rc>
    <rc><c>N </c><c>   2</c></rc>
    <rc><c>N </c><c>   2</c></rc>
    <rc><c>N </c><c>   2</c></rc>
    <rc><c>N </c><c>   2</c></rc>
    <rc><c>N </c><c>   2</c></rc>
    <rc><c>N </c><c>   2</c></rc>
    <rc><c>N </c><c>   2</c></rc>
    <rc><c>N </c><c>   2</c></rc>
    <rc><c>N </c><c>   2</c></rc>
    <rc><c>N </c><c>   2</c></rc>
    <rc><c>N </c><c>   2</c></rc>
    <rc><c>N </c><c>   2</c></rc>
    <rc><c>N </c><c>   2</c></rc>
    <rc><c>N </c><c>   2</c></rc>
    <rc><c>N </c><c>   2</c></rc>
    <rc><c>N </c><c>   2</c></rc>
    <rc><c>N </c><c>   2</c></rc>
    <rc><c>C </c><c>   3</c></rc>
   </set>
  </array>
  <array name="atomtypes" >
   <dimension dim="1">type</dimension>
   <field type="int">atomspertype</field>
   <field type="string">element</field>
   <field>mass</field>
   <field>valence</field>
   <field type="string">pseudopotential</field>
   <set>
    <rc><c>  48</c><c>B </c><c>     10.81100000</c><c>      3.00000000</c><c>  PAW_PBE B 06Sep2000                   </c></rc>
    <rc><c>  48</c><c>N </c><c>     14.00100000</c><c>      5.00000000</c><c>  PAW_PBE N 08Apr2002                   </c></rc>
    <rc><c>   1</c><c>C </c><c>     12.01100000</c><c>      4.00000000</c><c>  PAW_PBE C 08Apr2002                   </c></rc>
   </set>
  </array>
 </atominfo>
 <structure name="initialpos" >
  <crystal>
   <varray name="basis" >
    <v>      17.59966831       0.00000000       0.00000000 </v>
    <v>      -8.79983416      15.24175986       0.00000000 </v>
    <v>       0.00000000       0.00000000      19.92151445 </v>
   </varray>
   <i name="volume">   5343.94461817 </i>
   <varray name="rec_basis" >
    <v>       0.05681925       0.03280461       0.00000000 </v>
    <v>       0.00000000       0.06560922       0.00000000 </v>
    <v>       0.00000000       0.00000000       0.05019699 </v>
   </varray>
  </crystal>
  <varray name="positions" >
   <v>       0.99943010       0.00005992       0.50000000 </v>
   <v>       0.14164706       0.99928715       0.50000000 </v>
   <v>       0.28492260       0.99841663       0.50000000 </v>
   <v>       0.42850047       0.99871895       0.50000000 </v>
   <v>       0.57205839       0.00005992       0.50000000 </v>
   <v>       0.71530655       0.00214292       0.50000000 </v>
   <v>       0.85826494       0.00214292       0.50000000 </v>
   <v>       0.00080792       0.14408264       0.50000000 </v>
   <v>       0.14259355       0.14244783       0.50000000 </v>
   <v>       0.28470221       0.14112972       0.50000000 </v>
   <v>       0.42785608       0.14112972       0.50000000 </v>
   <v>       0.57128286       0.14244783       0.50000000 </v>
   <v>       0.71470329       0.14408264       0.50000000 </v>
   <v>       0.85805263       0.14467669       0.50000000 </v>
   <v>       0.00095476       0.28713011       0.50000000 </v>
   <v>       0.14372552       0.28645370       0.50000000 </v>
   <v>       0.28540977       0.28469374       0.50000000 </v>
   <v>       0.42724431       0.28306005       0.50000000 </v>
   <v>       0.57071254       0.28469374       0.50000000 </v>
   <v>       0.71415674       0.28645370       0.50000000 </v>
   <v>       0.85760392       0.28713011       0.50000000 </v>
   <v>       0.00054479       0.42966101       0.50000000 </v>
   <v>       0.14422690       0.42957551       0.50000000 </v>
   <v>       0.28730213       0.42918005       0.50000000 </v>
   <v>       0.42797654       0.42569726       0.50000000 </v>
   <v>       0.56914930       0.42569726       0.50000000 </v>
   <v>       0.71330650       0.42918005       0.50000000 </v>
   <v>       0.85677719       0.42957551       0.50000000 </v>
   <v>       0.99928255       0.57181462       0.50000000 </v>
   <v>       0.14396064       0.57181462       0.50000000 </v>
   <v>       0.28862787       0.57181625       0.50000000 </v>
   <v>       0.43313209       0.57215564       0.50000000 </v>
   <v>       0.71045212       0.57215564       0.50000000 </v>
   <v>       0.85461695       0.57181625       0.50000000 </v>
   <v>       0.99707234       0.71370518       0.50000000 </v>
   <v>       0.14255519       0.71368182       0.50000000 </v>
   <v>       0.28806142       0.71370518       0.50000000 </v>
   <v>       0.43464191       0.71382540       0.50000000 </v>
   <v>       0.58510826       0.71626937       0.50000000 </v>
   <v>       0.70258968       0.71626937       0.50000000 </v>
   <v>       0.85061206       0.71382540       0.50000000 </v>
   <v>       0.99777175       0.85613493       0.50000000 </v>
   <v>       0.14160898       0.85591288       0.50000000 </v>
   <v>       0.28573247       0.85591288       0.50000000 </v>
   <v>       0.42979175       0.85613493       0.50000000 </v>
   <v>       0.57342541       0.85758690       0.50000000 </v>
   <v>       0.71640633       0.86138410       0.50000000 </v>
   <v>       0.85559006       0.85758690       0.50000000 </v>
   <v>       0.04754270       0.09547788       0.50000000 </v>
   <v>       0.18957833       0.09405657       0.50000000 </v>
   <v>       0.33254182       0.09365506       0.50000000 </v>
   <v>       0.47590681       0.09405657       0.50000000 </v>
   <v>       0.61936376       0.09547788       0.50000000 </v>
   <v>       0.76280004       0.09719274       0.50000000 </v>
   <v>       0.90582126       0.09719274       0.50000000 </v>
   <v>       0.04854983       0.23934281       0.50000000 </v>
   <v>       0.19048138       0.23782962       0.50000000 </v>
   <v>       0.33234878       0.23634667       0.50000000 </v>
   <v>       0.47542646       0.23634667       0.50000000 </v>
   <v>       0.61877681       0.23782962       0.50000000 </v>
   <v>       0.76222155       0.23934281       0.50000000 </v>
   <v>       0.90562797       0.23982737       0.50000000 </v>
   <v>       0.04871288       0.38232824       0.50000000 </v>
   <v>       0.19188940       0.38184213       0.50000000 </v>
   <v>       0.33352206       0.38013969       0.50000000 </v>
   <v>       0.47472270       0.37801683       0.50000000 </v>
   <v>       0.61804620       0.38013969       0.50000000 </v>
   <v>       0.76138130       0.38184213       0.50000000 </v>
   <v>       0.90504393       0.38232824       0.50000000 </v>
   <v>       0.04810654       0.52478452       0.50000000 </v>
   <v>       0.19263929       0.52476864       0.50000000 </v>
   <v>       0.33696521       0.52455433       0.50000000 </v>
   <v>       0.47833704       0.52146721       0.50000000 </v>
   <v>       0.61455874       0.52146721       0.50000000 </v>
   <v>       0.75901769       0.52455433       0.50000000 </v>
   <v>       0.90355792       0.52476864       0.50000000 </v>
   <v>       0.04642473       0.66685228       0.50000000 </v>
   <v>       0.19185612       0.66685228       0.50000000 </v>
   <v>       0.33777931       0.66688794       0.50000000 </v>
   <v>       0.48615700       0.66710760       0.50000000 </v>
   <v>       0.75237918       0.66710760       0.50000000 </v>
   <v>       0.90053720       0.66688794       0.50000000 </v>
   <v>       0.04582562       0.80879365       0.50000000 </v>
   <v>       0.19009580       0.80876303       0.50000000 </v>
   <v>       0.33439660       0.80879365       0.50000000 </v>
   <v>       0.47844872       0.80897069       0.50000000 </v>
   <v>       0.62209487       0.81129474       0.50000000 </v>
   <v>       0.76062845       0.81129474       0.50000000 </v>
   <v>       0.90195054       0.80897069       0.50000000 </v>
   <v>       0.04629157       0.95154386       0.50000000 </v>
   <v>       0.18948291       0.95113037       0.50000000 </v>
   <v>       0.33307603       0.95113037       0.50000000 </v>
   <v>       0.47668087       0.95154386       0.50000000 </v>
   <v>       0.62015751       0.95313740       0.50000000 </v>
   <v>       0.76355772       0.95568687       0.50000000 </v>
   <v>       0.90440847       0.95313740       0.50000000 </v>
   <v>       0.56830873       0.56518888       0.50000000 </v>
  </varray>
 </structure>
 <calculation>
  <scstep>
   <time name="dav">    2.36    2.39</time>
   <time name="total">    2.74    2.84</time>
   <energy>
    <i name="alphaZ">    156.50993408 </i>
    <i name="ewald">  58206.80196509 </i>
    <i name="hartreedc"> -70374.21791176 </i>
    <i name="XCdc">   1302.10892411 </i>
    <i name="pawpsdc">  12033.28670802 </i>
    <i name="pawaedc"> -12049.96799276 </i>
    <i name="eentropy">     -0.00000000 </i>
    <i name="bandstr">   -904.60522044 </i>
    <i name="atom">  16260.93880140 </i>
    <i name="e_fr_energy">   4630.85520774 </i>
    <i name="e_wo_entrp">   4630.85520774 </i>
    <i name="e_0_energy">   4630.85520774 </i>
   </energy>
  </scstep>
  <scstep>
   <time name="dav">    3.00    3.03</time>
   <time name="total">    3.00    3.03</time>
   <energy>
    <i name="e_fr_energy">    216.72339272 </i>
    <i name="e_wo_entrp">    216.72339272 </i>
    <i name="e_0_energy">    216.72339272 </i>
   </energy>
  </scstep>
  <scstep>
   <time name="dav">    2.47    2.51</time>
   <time name="total">    2.47    2.51</time>
   <energy>
    <i name="e_fr_energy">   -867.46206720 </i>
    <i name="e_wo_entrp">   -867.46206720 </i>
    <i name="e_0_energy">   -867.46206720 </i>
   </energy>
  </scstep>
  <scstep>
   <time name="dav">    2.49    2.52</time>
   <time name="total">    2.49    2.52</time>
   <energy>
    <i name="e_fr_energy">   -934.19348109 </i>
    <i name="e_wo_entrp">   -934.19348109 </i>
    <i name="e_0_energy">   -934.19348109 </i>
   </energy>
  </scstep>
  <scstep>
   <time name="dav">    2.50    2.52</time>
   <time name="total">    3.18    3.21</time>
   <energy>
    <i name="e_fr_energy">   -935.77532414 </i>
    <i name="e_wo_entrp">   -935.77532414 </i>
    <i name="e_0_energy">   -935.77532414 </i>
   </energy>
  </scstep>
  <scstep>
   <time name="dav">    2.34    2.38</time>
   <time name="total">    3.21    3.26</time>
   <energy>
    <i name="e_fr_energy">   -858.73139675 </i>
    <i name="e_wo_entrp">   -858.73139675 </i>
    <i name="e_0_energy">   -858.73139675 </i>
   </energy>
  </scstep>
  <scstep>
   <time name="dav">    2.32    2.36</time>
   <time name="total">    3.12    3.18</time>
   <energy>
    <i name="e_fr_energy">   -850.19144011 </i>
    <i name="e_wo_entrp">   -850.19144011 </i>
    <i name="e_0_energy">   -850.19144011 </i>
   </energy>
  </scstep>
  <scstep>
   <time name="dav">    2.28    2.30</time>
   <time name="total">    3.09    3.15</time>
   <energy>
    <i name="e_fr_energy">   -845.92392195 </i>
    <i name="e_wo_entrp">   -845.92392109 </i>
    <i name="e_0_energy">   -845.92392152 </i>
   </energy>
  </scstep>
  <scstep>
   <time name="dav">    2.32    2.34</time>
   <time name="total">    3.12    3.17</time>
   <energy>
    <i name="e_fr_energy">   -845.80084001 </i>
    <i name="e_wo_entrp">   -845.80084001 </i>
    <i name="e_0_energy">   -845.80084001 </i>
   </energy>
  </scstep>
  <scstep>
   <time name="dav">    2.37    2.39</time>
   <time name="total">    3.18    3.22</time>
   <energy>
    <i name="e_fr_energy">   -845.63936271 </i>
    <i name="e_wo_entrp">   -845.63936271 </i>
    <i name="e_0_energy">   -845.63936271 </i>
   </energy>
  </scstep>
  <scstep>
   <time name="dav">    2.26    2.28</time>
   <time name="total">    3.06    3.11</time>
   <energy>
    <i name="e_fr_energy">   -845.58616405 </i>
    <i name="e_wo_entrp">   -845.58616405 </i>
    <i name="e_0_energy">   -845.58616405 </i>
   </energy>
  </scstep>
  <scstep>
   <time name="dav">    2.25    2.27</time>
   <time name="total">    3.06    3.10</time>
   <energy>
    <i name="e_fr_energy">   -845.57397298 </i>
    <i name="e_wo_entrp">   -845.57397298 </i>
    <i name="e_0_energy">   -845.57397298 </i>
   </energy>
  </scstep>
  <scstep>
   <time name="dav">    2.22    2.25</time>
   <time name="total">    3.03    3.08</time>
   <energy>
    <i name="e_fr_energy">   -845.58393801 </i>
    <i name="e_wo_entrp">   -845.58393801 </i>
    <i name="e_0_energy">   -845.58393801 </i>
   </energy>
  </scstep>
  <scstep>
   <time name="dav">    2.23    2.26</time>
   <time name="total">    3.02    3.08</time>
   <energy>
    <i name="e_fr_energy">   -845.59443290 </i>
    <i name="e_wo_entrp">   -845.59443290 </i>
    <i name="e_0_energy">   -845.59443290 </i>
   </energy>
  </scstep>
  <scstep>
   <time name="dav">    2.18    2.20</time>
   <time name="total">    2.98    3.03</time>
   <energy>
    <i name="e_fr_energy">   -845.62560606 </i>
    <i name="e_wo_entrp">   -845.62560606 </i>
    <i name="e_0_energy">   -845.62560606 </i>
   </energy>
  </scstep>
  <scstep>
   <time name="dav">    2.18    2.21</time>
   <time name="total">    2.99    3.03</time>
   <energy>
    <i name="e_fr_energy">   -845.64187176 </i>
    <i name="e_wo_entrp">   -845.64187176 </i>
    <i name="e_0_energy">   -845.64187176 </i>
   </energy>
  </scstep>
  <scstep>
   <time name="dav">    2.31    2.33</time>
   <time name="total">    3.11    4.16</time>
   <energy>
    <i name="e_fr_energy">   -845.64810605 </i>
    <i name="e_wo_entrp">   -845.64810605 </i>
    <i name="e_0_energy">   -845.64810605 </i>
   </energy>
  </scstep>
  <scstep>
   <time name="dav">    2.20    2.22</time>
   <time name="total">    3.01    3.07</time>
   <energy>
    <i name="e_fr_energy">   -845.65121627 </i>
    <i name="e_wo_entrp">   -845.65121627 </i>
    <i name="e_0_energy">   -845.65121627 </i>
   </energy>
  </scstep>
  <scstep>
   <time name="dav">    2.30    2.32</time>
   <time name="total">    3.11    3.15</time>
   <energy>
    <i name="e_fr_energy">   -845.65229031 </i>
    <i name="e_wo_entrp">   -845.65229031 </i>
    <i name="e_0_energy">   -845.65229031 </i>
   </energy>
  </scstep>
  <scstep>
   <time name="dav">    2.23    2.26</time>
   <time name="total">    3.05    3.08</time>
   <energy>
    <i name="e_fr_energy">   -845.65270765 </i>
    <i name="e_wo_entrp">   -845.65270765 </i>
    <i name="e_0_energy">   -845.65270765 </i>
   </energy>
  </scstep>
  <scstep>
   <time name="dav">    2.25    2.27</time>
   <time name="total">    3.07    3.10</time>
   <energy>
    <i name="e_fr_energy">   -845.65290527 </i>
    <i name="e_wo_entrp">   -845.65290527 </i>
    <i name="e_0_energy">   -845.65290527 </i>
   </energy>
  </scstep>
  <scstep>
   <time name="dav">    2.20    2.22</time>
   <time name="total">    3.01    3.05</time>
   <energy>
    <i name="e_fr_energy">   -845.65301095 </i>
    <i name="e_wo_entrp">   -845.65301095 </i>
    <i name="e_0_energy">   -845.65301095 </i>
   </energy>
  </scstep>
  <scstep>
   <time name="dav">    2.26    2.29</time>
   <time name="total">    3.07    3.11</time>
   <energy>
    <i name="e_fr_energy">   -845.65309127 </i>
    <i name="e_wo_entrp">   -845.65309127 </i>
    <i name="e_0_energy">   -845.65309127 </i>
   </energy>
  </scstep>
  <scstep>
   <time name="dav">    2.28    2.30</time>
   <time name="total">    3.09    3.12</time>
   <energy>
    <i name="e_fr_energy">   -845.65313058 </i>
    <i name="e_wo_entrp">   -845.65313058 </i>
    <i name="e_0_energy">   -845.65313058 </i>
   </energy>
  </scstep>
  <scstep>
   <time name="dav">    2.26    2.28</time>
   <time name="total">    3.07    3.10</time>
   <energy>
    <i name="e_fr_energy">   -845.65314858 </i>
    <i name="e_wo_entrp">   -845.65314858 </i>
    <i name="e_0_energy">   -845.65314858 </i>
   </energy>
  </scstep>
  <scstep>
   <time name="dav">    2.20    2.22</time>
   <time name="total">    3.01    3.05</time>
   <energy>
    <i name="e_fr_energy">   -845.65316540 </i>
    <i name="e_wo_entrp">   -845.65316540 </i>
    <i name="e_0_energy">   -845.65316540 </i>
   </energy>
  </scstep>
  <scstep>
   <time name="dav">    2.21    2.23</time>
   <time name="total">    3.04    3.07</time>
   <energy>
    <i name="e_fr_energy">   -845.65316840 </i>
    <i name="e_wo_entrp">   -845.65316840 </i>
    <i name="e_0_energy">   -845.65316840 </i>
   </energy>
  </scstep>
  <scstep>
   <time name="dav">    1.94    1.95</time>
   <time name="total">    2.75    2.78</time>
   <energy>
    <i name="e_fr_energy">   -845.65316962 </i>
    <i name="e_wo_entrp">   -845.65316962 </i>
    <i name="e_0_energy">   -845.65316962 </i>
   </energy>
  </scstep>
  <scstep>
   <time name="dav">    1.82    1.83</time>
   <time name="total">    2.63    2.66</time>
   <energy>
    <i name="e_fr_energy">   -845.65316995 </i>
    <i name="e_wo_entrp">   -845.65316995 </i>
    <i name="e_0_energy">   -845.65316995 </i>
   </energy>
  </scstep>
  <scstep>
   <time name="dav">    1.71    1.72</time>
   <time name="total">    2.52    2.56</time>
   <energy>
    <i name="e_fr_energy">   -845.65317009 </i>
    <i name="e_wo_entrp">   -845.65317009 </i>
    <i name="e_0_energy">   -845.65317009 </i>
   </energy>
  </scstep>
  <scstep>
   <time name="dav">    1.70    1.71</time>
   <time name="total">    2.51    2.55</time>
   <energy>
    <i name="e_fr_energy">   -845.65317015 </i>
    <i name="e_wo_entrp">   -845.65317015 </i>
    <i name="e_0_energy">   -845.65317015 </i>
   </energy>
  </scstep>
  <scstep>
   <time name="dav">    1.72    1.73</time>
   <time name="total">    2.53    2.57</time>
   <energy>
    <i name="e_fr_energy">   -845.65317017 </i>
    <i name="e_wo_entrp">   -845.65317017 </i>
    <i name="e_0_energy">   -845.65317017 </i>
   </energy>
  </scstep>
  <scstep>
   <time name="dav">    1.82    1.83</time>
   <time name="total">    2.19    2.22</time>
   <energy>
    <i name="alphaZ">    156.50993408 </i>
    <i name="ewald">  58206.80196509 </i>
    <i name="hartreedc"> -72314.29680904 </i>
    <i name="XCdc">   1369.72420093 </i>
    <i name="pawpsdc">  44018.92398864 </i>
    <i name="pawaedc"> -44054.26591457 </i>
    <i name="eentropy">     -0.00000000 </i>
    <i name="bandstr">  -4489.98933670 </i>
    <i name="atom">  16260.93880140 </i>
    <i name="e_fr_energy">   -845.65317018 </i>
    <i name="e_wo_entrp">   -845.65317018 </i>
    <i name="e_0_energy">   -845.65317018 </i>
   </energy>
  </scstep>
  <structure>
   <crystal>
    <varray name="basis" >
     <v>      17.59966831       0.00000000       0.00000000 </v>
     <v>      -8.79983416      15.24175986       0.00000000 </v>
     <v>       0.00000000       0.00000000      19.92151445 </v>
    </varray>
    <i name="volume">   5343.94461817 </i>
    <varray name="rec_basis" >
     <v>       0.05681925       0.03280461       0.00000000 </v>
     <v>       0.00000000       0.06560922       0.00000000 </v>
     <v>       0.00000000       0.00000000       0.05019699 </v>
    </varray>
   </crystal>
   <varray name="positions" >
    <v>       0.99943010       0.00005992       0.50000000 </v>
    <v>       0.14164706       0.99928715       0.50000000 </v>
    <v>       0.28492260       0.99841663       0.50000000 </v>
    <v>       0.42850047       0.99871895       0.50000000 </v>
    <v>       0.57205839       0.00005992       0.50000000 </v>
    <v>       0.71530655       0.00214292       0.50000000 </v>
    <v>       0.85826494       0.00214292       0.50000000 </v>
    <v>       0.00080792       0.14408264       0.50000000 </v>
    <v>       0.14259355       0.14244783       0.50000000 </v>
    <v>       0.28470221       0.14112972       0.50000000 </v>
    <v>       0.42785608       0.14112972       0.50000000 </v>
    <v>       0.57128286       0.14244783       0.50000000 </v>
    <v>       0.71470329       0.14408264       0.50000000 </v>
    <v>       0.85805263       0.14467669       0.50000000 </v>
    <v>       0.00095476       0.28713011       0.50000000 </v>
    <v>       0.14372552       0.28645370       0.50000000 </v>
    <v>       0.28540977       0.28469374       0.50000000 </v>
    <v>       0.42724431       0.28306005       0.50000000 </v>
    <v>       0.57071254       0.28469374       0.50000000 </v>
    <v>       0.71415674       0.28645370       0.50000000 </v>
    <v>       0.85760392       0.28713011       0.50000000 </v>
    <v>       0.00054479       0.42966101       0.50000000 </v>
    <v>       0.14422690       0.42957551       0.50000000 </v>
    <v>       0.28730213       0.42918005       0.50000000 </v>
    <v>       0.42797654       0.42569726       0.50000000 </v>
    <v>       0.56914930       0.42569726       0.50000000 </v>
    <v>       0.71330650       0.42918005       0.50000000 </v>
    <v>       0.85677719       0.42957551       0.50000000 </v>
    <v>       0.99928255       0.57181462       0.50000000 </v>
    <v>       0.14396064       0.57181462       0.50000000 </v>
    <v>       0.28862787       0.57181625       0.50000000 </v>
    <v>       0.43313209       0.57215564       0.50000000 </v>
    <v>       0.71045212       0.57215564       0.50000000 </v>
    <v>       0.85461695       0.57181625       0.50000000 </v>
    <v>       0.99707234       0.71370518       0.50000000 </v>
    <v>       0.14255519       0.71368182       0.50000000 </v>
    <v>       0.28806142       0.71370518       0.50000000 </v>
    <v>       0.43464191       0.71382540       0.50000000 </v>
    <v>       0.58510826       0.71626937       0.50000000 </v>
    <v>       0.70258968       0.71626937       0.50000000 </v>
    <v>       0.85061206       0.71382540       0.50000000 </v>
    <v>       0.99777175       0.85613493       0.50000000 </v>
    <v>       0.14160898       0.85591288       0.50000000 </v>
    <v>       0.28573247       0.85591288       0.50000000 </v>
    <v>       0.42979175       0.85613493       0.50000000 </v>
    <v>       0.57342541       0.85758690       0.50000000 </v>
    <v>       0.71640633       0.86138410       0.50000000 </v>
    <v>       0.85559006       0.85758690       0.50000000 </v>
    <v>       0.04754270       0.09547788       0.50000000 </v>
    <v>       0.18957833       0.09405657       0.50000000 </v>
    <v>       0.33254182       0.09365506       0.50000000 </v>
    <v>       0.47590681       0.09405657       0.50000000 </v>
    <v>       0.61936376       0.09547788       0.50000000 </v>
    <v>       0.76280004       0.09719274       0.50000000 </v>
    <v>       0.90582126       0.09719274       0.50000000 </v>
    <v>       0.04854983       0.23934281       0.50000000 </v>
    <v>       0.19048138       0.23782962       0.50000000 </v>
    <v>       0.33234878       0.23634667       0.50000000 </v>
    <v>       0.47542646       0.23634667       0.50000000 </v>
    <v>       0.61877681       0.23782962       0.50000000 </v>
    <v>       0.76222155       0.23934281       0.50000000 </v>
    <v>       0.90562797       0.23982737       0.50000000 </v>
    <v>       0.04871288       0.38232824       0.50000000 </v>
    <v>       0.19188940       0.38184213       0.50000000 </v>
    <v>       0.33352206       0.38013969       0.50000000 </v>
    <v>       0.47472270       0.37801683       0.50000000 </v>
    <v>       0.61804620       0.38013969       0.50000000 </v>
    <v>       0.76138130       0.38184213       0.50000000 </v>
    <v>       0.90504393       0.38232824       0.50000000 </v>
    <v>       0.04810654       0.52478452       0.50000000 </v>
    <v>       0.19263929       0.52476864       0.50000000 </v>
    <v>       0.33696521       0.52455433       0.50000000 </v>
    <v>       0.47833704       0.52146721       0.50000000 </v>
    <v>       0.61455874       0.52146721       0.50000000 </v>
    <v>       0.75901769       0.52455433       0.50000000 </v>
    <v>       0.90355792       0.52476864       0.50000000 </v>
    <v>       0.04642473       0.66685228       0.50000000 </v>
    <v>       0.19185612       0.66685228       0.50000000 </v>
    <v>       0.33777931       0.66688794       0.50000000 </v>
    <v>       0.48615700       0.66710760       0.50000000 </v>
    <v>       0.75237918       0.66710760       0.50000000 </v>
    <v>       0.90053720       0.66688794       0.50000000 </v>
    <v>       0.04582562       0.80879365       0.50000000 </v>
    <v>       0.19009580       0.80876303       0.50000000 </v>
    <v>       0.33439660       0.80879365       0.50000000 </v>
    <v>       0.47844872       0.80897069       0.50000000 </v>
    <v>       0.62209487       0.81129474       0.50000000 </v>
    <v>       0.76062845       0.81129474       0.50000000 </v>
    <v>       0.90195054       0.80897069       0.50000000 </v>
    <v>       0.04629157       0.95154386       0.50000000 </v>
    <v>       0.18948291       0.95113037       0.50000000 </v>
    <v>       0.33307603       0.95113037       0.50000000 </v>
    <v>       0.47668087       0.95154386       0.50000000 </v>
    <v>       0.62015751       0.95313740       0.50000000 </v>
    <v>       0.76355772       0.95568687       0.50000000 </v>
    <v>       0.90440847       0.95313740       0.50000000 </v>
    <v>       0.56830873       0.56518888       0.50000000 </v>
   </varray>
  </structure>
  <varray name="forces" >
   <v>      -0.05363680      -0.04817677       0.00000000 </v>
   <v>       0.21783082      -0.43989658      -0.00000000 </v>
   <v>      -0.02972233      -0.04382585       0.00000000 </v>
   <v>       0.01670524      -0.01535802       0.00000000 </v>
   <v>       0.03764855      -0.02778458       0.00000000 </v>
   <v>      -0.03481901      -0.05054082      -0.00000000 </v>
   <v>       0.03306211      -0.05278054       0.00000000 </v>
   <v>      -0.01188738      -0.02417606       0.00000000 </v>
   <v>      -0.05667610       0.00769904       0.00000000 </v>
   <v>       0.03437416      -0.02336994      -0.00000000 </v>
   <v>       0.00832608      -0.03464511      -0.00000000 </v>
   <v>       0.02582425      -0.02685336      -0.00000000 </v>
   <v>       0.00472821      -0.02725234      -0.00000000 </v>
   <v>      -0.00190683      -0.04117085      -0.00000000 </v>
   <v>      -0.01153025      -0.02738806       0.00000000 </v>
   <v>       0.00019064      -0.04067965      -0.00000000 </v>
   <v>      -0.03000008       0.00361547       0.00000000 </v>
   <v>       0.00763227      -0.09229950       0.00000000 </v>
   <v>       0.03238014      -0.00228420       0.00000000 </v>
   <v>      -0.00546377      -0.04402373       0.00000000 </v>
   <v>       0.00728434      -0.02831875       0.00000000 </v>
   <v>      -0.00121945       0.00946138       0.00000000 </v>
   <v>      -0.02731144       0.00146065       0.00000000 </v>
   <v>       0.05615008      -0.13552518       0.00000000 </v>
   <v>      -0.11017218      -0.19801057      -0.00000000 </v>
   <v>       0.11400207      -0.19943729       0.00000000 </v>
   <v>      -0.05640759      -0.13750458       0.00000000 </v>
   <v>       0.02522324       0.00064450      -0.00000000 </v>
   <v>       0.01678704       0.03251870      -0.00000000 </v>
   <v>      -0.01801118       0.03187540       0.00000000 </v>
   <v>      -0.08683990       0.13028696      -0.00000000 </v>
   <v>       0.05047648       0.39817649       0.00000000 </v>
   <v>      -0.04917785       0.39727112      -0.00000000 </v>
   <v>       0.08630372       0.12993403      -0.00000000 </v>
   <v>      -0.00778279       0.02878916      -0.00000000 </v>
   <v>      -0.00053740       0.03418354      -0.00000000 </v>
   <v>       0.00656027       0.02490840      -0.00000000 </v>
   <v>       0.08526535       0.04401121      -0.00000000 </v>
   <v>       1.36416959       1.25101008       0.00000000 </v>
   <v>      -1.36381892       1.25051643      -0.00000000 </v>
   <v>      -0.08371435       0.04201690      -0.00000000 </v>
   <v>      -0.02145121      -0.00718822       0.00000000 </v>
   <v>      -0.02617043       0.03802138      -0.00000000 </v>
   <v>       0.00692236      -0.00174249       0.00000000 </v>
   <v>       0.04369344      -0.00812717      -0.00000000 </v>
   <v>       0.14972255       0.03587724      -0.00000000 </v>
   <v>      -0.00012932      -0.25318809      -0.00000000 </v>
   <v>      -0.15045400       0.03513391      -0.00000000 </v>
   <v>       0.03989019       0.03690994      -0.00000000 </v>
   <v>      -0.02925150       0.21410810      -0.00000000 </v>
   <v>      -0.01094175       0.04635898      -0.00000000 </v>
   <v>      -0.01037114       0.02714543       0.00000000 </v>
   <v>      -0.02545050       0.03318994       0.00000000 </v>
   <v>      -0.01108804       0.02765225       0.00000000 </v>
   <v>       0.01607573       0.02849462       0.00000000 </v>
   <v>       0.02028005       0.03342919       0.00000000 </v>
   <v>      -0.00627720      -0.00611759       0.00000000 </v>
   <v>       0.00759607       0.02513046      -0.00000000 </v>
   <v>      -0.01925874       0.03753845       0.00000000 </v>
   <v>       0.00795380       0.00443977      -0.00000000 </v>
   <v>      -0.01567144       0.03562018      -0.00000000 </v>
   <v>       0.00188879       0.03073120       0.00000000 </v>
   <v>       0.01285471       0.02425888      -0.00000000 </v>
   <v>       0.04986617       0.05621877       0.00000000 </v>
   <v>      -0.02199072      -0.20468470      -0.00000000 </v>
   <v>      -0.00241155       0.10821826       0.00000000 </v>
   <v>       0.02016898      -0.20021011       0.00000000 </v>
   <v>      -0.04849844       0.05899208       0.00000000 </v>
   <v>      -0.01049440       0.02507097       0.00000000 </v>
   <v>       0.00082022       0.00648735      -0.00000000 </v>
   <v>       0.02721606      -0.00966390      -0.00000000 </v>
   <v>       0.19111102       0.10993315      -0.00000000 </v>
   <v>       1.02247989      -1.56515228      -0.00000000 </v>
   <v>      -1.02424924      -1.56403902      -0.00000000 </v>
   <v>      -0.19153821       0.11152519       0.00000000 </v>
   <v>      -0.02642522      -0.00903241       0.00000000 </v>
   <v>       0.00954101      -0.03761714      -0.00000000 </v>
   <v>      -0.00777950      -0.03646757      -0.00000000 </v>
   <v>      -0.05707020      -0.06857276      -0.00000000 </v>
   <v>      -0.26966199       0.00788867       0.00000000 </v>
   <v>       0.26922930       0.00909913      -0.00000000 </v>
   <v>       0.05587787      -0.06873278      -0.00000000 </v>
   <v>       0.02525862      -0.02171214       0.00000000 </v>
   <v>       0.00730692      -0.01810694       0.00000000 </v>
   <v>      -0.03202203      -0.01518540      -0.00000000 </v>
   <v>      -0.08332467      -0.01410200       0.00000000 </v>
   <v>      -0.88546723       0.24366439      -0.00000000 </v>
   <v>       0.88608996       0.24432149      -0.00000000 </v>
   <v>       0.08346423      -0.00799815      -0.00000000 </v>
   <v>      -0.00875584       0.08762270      -0.00000000 </v>
   <v>      -0.12331854       0.11998546       0.00000000 </v>
   <v>       0.00318750      -0.00183093       0.00000000 </v>
   <v>      -0.02856973       0.01814212       0.00000000 </v>
   <v>      -0.10915050       0.11955572      -0.00000000 </v>
   <v>       0.00065760       0.01729458       0.00000000 </v>
   <v>       0.10693555       0.12365506      -0.00000000 </v>
   <v>       0.00086557      -0.11932033      -0.00000000 </v>
  </varray>
  <varray name="stress" >
   <v>     -10.63278413       0.01723113       0.00000000 </v>
   <v>       0.01723113       3.06782595       0.00000000 </v>
   <v>       0.00000000       0.00000000      -0.42556627 </v>
  </varray>
  <energy>
   <i name="e_fr_energy">   -845.65317018 </i>
   <i name="e_wo_entrp">   -845.65317018 </i>
   <i name="e_0_energy">     -0.00000000 </i>
  </energy>
  <time name="totalsc">  104.10  106.58</time>
  <eigenvalues>
   <array>
    <dimension dim="1">band</dimension>
    <dimension dim="2">kpoint</dimension>
    <dimension dim="3">spin</dimension>
    <field>eigene</field>
    <field>occ</field>
    <set>
     <set comment="spin 1">
      <set comment="kpoint 1">
       <r>  -22.5424    1.0000 </r>
       <r>  -22.0202    1.0000 </r>
       <r>  -21.7763    1.0000 </r>
       <r>  -21.7450    1.0000 </r>
       <r>  -21.6929    1.0000 </r>
       <r>  -21.6541    1.0000 </r>
       <r>  -21.6184    1.0000 </r>
       <r>  -21.2343    1.0000 </r>
       <r>  -21.0692    1.0000 </r>
       <r>  -21.0058    1.0000 </r>
       <r>  -20.9705    1.0000 </r>
       <r>  -20.9304    1.0000 </r>
       <r>  -20.8761    1.0000 </r>
       <r>  -20.7444    1.0000 </r>
       <r>  -20.7024    1.0000 </r>
       <r>  -20.6633    1.0000 </r>
       <r>  -20.5931    1.0000 </r>
       <r>  -20.5659    1.0000 </r>
       <r>  -20.4282    1.0000 </r>
       <r>  -19.9826    1.0000 </r>
       <r>  -19.9246    1.0000 </r>
       <r>  -19.8050    1.0000 </r>
       <r>  -19.7633    1.0000 </r>
       <r>  -19.7361    1.0000 </r>
       <r>  -19.7331    1.0000 </r>
       <r>  -19.7070    1.0000 </r>
       <r>  -19.7018    1.0000 </r>
       <r>  -19.6475    1.0000 </r>
       <r>  -19.6377    1.0000 </r>
       <r>  -19.6290    1.0000 </r>
       <r>  -19.4932    1.0000 </r>
       <r>  -19.4038    1.0000 </r>
       <r>  -19.3637    1.0000 </r>
       <r>  -19.3581    1.0000 </r>
       <r>  -19.2894    1.0000 </r>
       <r>  -19.2383    1.0000 </r>
       <r>  -19.1085    1.0000 </r>
       <r>  -18.9978    1.0000 </r>
       <r>  -18.9330    1.0000 </r>
       <r>  -18.8784    1.0000 </r>
       <r>  -18.8513    1.0000 </r>
       <r>  -18.8375    1.0000 </r>
       <r>  -18.7681    1.0000 </r>
       <r>  -18.7513    1.0000 </r>
       <r>  -18.7282    1.0000 </r>
       <r>  -18.7089    1.0000 </r>
       <r>  -18.6914    1.0000 </r>
       <r>  -18.4448    1.0000 </r>
       <r>  -14.1418    1.0000 </r>
       <r>  -13.1824    1.0000 </r>
       <r>  -13.1588    1.0000 </r>
       <r>  -13.1120    1.0000 </r>
       <r>  -13.1046    1.0000 </r>
       <r>  -13.0811    1.0000 </r>
       <r>  -13.0111    1.0000 </r>
       <r>  -12.9594    1.0000 </r>
       <r>  -12.9515    1.0000 </r>
       <r>  -12.9358    1.0000 </r>
       <r>  -12.8046    1.0000 </r>
       <r>  -12.7669    1.0000 </r>
       <r>  -12.6017    1.0000 </r>
       <r>  -12.5067    1.0000 </r>
       <r>  -12.4859    1.0000 </r>
       <r>  -12.3770    1.0000 </r>
       <r>  -12.3084    1.0000 </r>
       <r>  -12.2968    1.0000 </r>
       <r>  -12.1722    1.0000 </r>
       <r>  -11.8996    1.0000 </r>
       <r>  -11.8856    1.0000 </r>
       <r>  -11.7689    1.0000 </r>
       <r>  -11.7617    1.0000 </r>
       <r>  -11.7520    1.0000 </r>
       <r>  -11.7425    1.0000 </r>
       <r>  -11.6957    1.0000 </r>
       <r>  -11.6592    1.0000 </r>
       <r>  -11.6301    1.0000 </r>
       <r>  -11.5419    1.0000 </r>
       <r>  -11.4198    1.0000 </r>
       <r>  -11.1999    1.0000 </r>
       <r>  -11.1255    1.0000 </r>
       <r>  -11.0836    1.0000 </r>
       <r>  -11.0565    1.0000 </r>
       <r>  -10.9691    1.0000 </r>
       <r>  -10.9116    1.0000 </r>
       <r>  -10.6873    1.0000 </r>
       <r>  -10.4612    1.0000 </r>
       <r>  -10.4288    1.0000 </r>
       <r>  -10.3505    1.0000 </r>
       <r>  -10.2546    1.0000 </r>
       <r>  -10.2072    1.0000 </r>
       <r>   -9.8912    1.0000 </r>
       <r>   -9.7698    1.0000 </r>
       <r>   -9.7641    1.0000 </r>
       <r>   -9.7257    1.0000 </r>
       <r>   -9.6761    1.0000 </r>
       <r>   -9.5832    1.0000 </r>
       <r>   -9.5407    1.0000 </r>
       <r>   -9.4985    1.0000 </r>
       <r>   -9.4630    1.0000 </r>
       <r>   -9.3519    1.0000 </r>
       <r>   -9.3473    1.0000 </r>
       <r>   -9.2896    1.0000 </r>
       <r>   -9.2649    1.0000 </r>
       <r>   -9.2565    1.0000 </r>
       <r>   -9.2498    1.0000 </r>
       <r>   -9.2366    1.0000 </r>
       <r>   -9.2263    1.0000 </r>
       <r>   -9.2218    1.0000 </r>
       <r>   -9.2082    1.0000 </r>
       <r>   -9.2010    1.0000 </r>
       <r>   -9.1986    1.0000 </r>
       <r>   -9.1962    1.0000 </r>
       <r>   -9.1534    1.0000 </r>
       <r>   -9.1333    1.0000 </r>
       <r>   -9.1107    1.0000 </r>
       <r>   -9.1106    1.0000 </r>
       <r>   -9.1037    1.0000 </r>
       <r>   -9.0417    1.0000 </r>
       <r>   -8.9940    1.0000 </r>
       <r>   -8.8463    1.0000 </r>
       <r>   -8.8002    1.0000 </r>
       <r>   -8.6549    1.0000 </r>
       <r>   -8.5067    1.0000 </r>
       <r>   -8.4803    1.0000 </r>
       <r>   -8.4414    1.0000 </r>
       <r>   -8.3259    1.0000 </r>
       <r>   -8.2226    1.0000 </r>
       <r>   -8.2028    1.0000 </r>
       <r>   -8.1983    1.0000 </r>
       <r>   -8.1715    1.0000 </r>
       <r>   -8.1494    1.0000 </r>
       <r>   -8.1259    1.0000 </r>
       <r>   -8.0375    1.0000 </r>
       <r>   -7.9702    1.0000 </r>
       <r>   -7.9527    1.0000 </r>
       <r>   -7.8662    1.0000 </r>
       <r>   -7.8529    1.0000 </r>
       <r>   -7.8432    1.0000 </r>
       <r>   -7.8048    1.0000 </r>
       <r>   -7.7995    1.0000 </r>
       <r>   -7.7991    1.0000 </r>
       <r>   -7.7372    1.0000 </r>
       <r>   -7.7339    1.0000 </r>
       <r>   -7.7122    1.0000 </r>
       <r>   -7.6766    1.0000 </r>
       <r>   -7.6758    1.0000 </r>
       <r>   -7.6624    1.0000 </r>
       <r>   -7.6367    1.0000 </r>
       <r>   -7.6292    1.0000 </r>
       <r>   -7.4418    1.0000 </r>
       <r>   -7.4393    1.0000 </r>
       <r>   -7.4289    1.0000 </r>
       <r>   -7.3847    1.0000 </r>
       <r>   -7.3547    1.0000 </r>
       <r>   -7.2712    1.0000 </r>
       <r>   -6.8321    1.0000 </r>
       <r>   -6.7596    1.0000 </r>
       <r>   -6.6177    1.0000 </r>
       <r>   -6.6057    1.0000 </r>
       <r>   -6.5439    1.0000 </r>
       <r>   -6.5427    1.0000 </r>
       <r>   -6.5028    1.0000 </r>
       <r>   -6.4898    1.0000 </r>
       <r>   -6.4570    1.0000 </r>
       <r>   -6.4566    1.0000 </r>
       <r>   -6.4397    1.0000 </r>
       <r>   -6.4375    1.0000 </r>
       <r>   -6.4098    1.0000 </r>
       <r>   -6.4060    1.0000 </r>
       <r>   -6.3622    1.0000 </r>
       <r>   -6.3471    1.0000 </r>
       <r>   -6.3155    1.0000 </r>
       <r>   -6.1106    1.0000 </r>
       <r>   -5.9665    1.0000 </r>
       <r>   -5.9264    1.0000 </r>
       <r>   -5.8871    1.0000 </r>
       <r>   -5.8769    1.0000 </r>
       <r>   -5.8630    1.0000 </r>
       <r>   -5.7814    1.0000 </r>
       <r>   -5.7780    1.0000 </r>
       <r>   -5.5286    1.0000 </r>
       <r>   -5.2194    1.0000 </r>
       <r>   -5.1978    1.0000 </r>
       <r>   -5.1970    1.0000 </r>
       <r>   -5.1396    1.0000 </r>
       <r>   -5.1343    1.0000 </r>
       <r>   -5.1043    1.0000 </r>
       <r>   -5.0018    1.0000 </r>
       <r>   -4.9454    1.0000 </r>
       <r>   -4.9167    1.0000 </r>
       <r>   -4.9067    1.0000 </r>
       <r>   -4.8964    1.0000 </r>
       <r>   -4.7317    1.0000 </r>
       <r>   -1.3163    1.0000 </r>
       <r>   -1.2030    0.0000 </r>
       <r>    0.0582    0.0000 </r>
       <r>    0.2048    0.0000 </r>
       <r>    0.2410    0.0000 </r>
       <r>    0.2578    0.0000 </r>
       <r>    0.2581    0.0000 </r>
       <r>    0.3025    0.0000 </r>
       <r>    0.3087    0.0000 </r>
       <r>    0.3788    0.0000 </r>
       <r>    0.3964    0.0000 </r>
       <r>    0.4320    0.0000 </r>
       <r>    0.4805    0.0000 </r>
       <r>    0.5255    0.0000 </r>
       <r>    0.6101    0.0000 </r>
       <r>    0.7464    0.0000 </r>
       <r>    0.7498    0.0000 </r>
       <r>    0.7764    0.0000 </r>
       <r>    0.8052    0.0000 </r>
       <r>    0.8115    0.0000 </r>
       <r>    0.8276    0.0000 </r>
       <r>    0.8402    0.0000 </r>
       <r>    0.8587    0.0000 </r>
       <r>    0.8703    0.0000 </r>
       <r>    0.9807    0.0000 </r>
       <r>    1.0199    0.0000 </r>
       <r>    1.0611    0.0000 </r>
       <r>    1.1191    0.0000 </r>
       <r>    1.4953    0.0000 </r>
       <r>    1.6728    0.0000 </r>
       <r>    1.6963    0.0000 </r>
       <r>    1.7065    0.0000 </r>
       <r>    1.7243    0.0000 </r>
       <r>    1.7403    0.0000 </r>
       <r>    1.7443    0.0000 </r>
       <r>    1.8057    0.0000 </r>
       <r>    1.8077    0.0000 </r>
       <r>    1.8454    0.0000 </r>
       <r>    1.8490    0.0000 </r>
       <r>    1.8774    0.0000 </r>
       <r>    1.8813    0.0000 </r>
       <r>    1.9048    0.0000 </r>
       <r>    1.9066    0.0000 </r>
       <r>    1.9282    0.0000 </r>
       <r>    1.9860    0.0000 </r>
       <r>    2.0298    0.0000 </r>
       <r>    2.1061    0.0000 </r>
       <r>    2.1066    0.0000 </r>
       <r>    2.1286    0.0000 </r>
       <r>    2.1350    0.0000 </r>
       <r>    2.1404    0.0000 </r>
      </set>
     </set>
    </set>
   </array>
  </eigenvalues>
  <separator name="orbital magnetization" >
   <v name="MAGDIPOLOUT">      0.00000000      0.00000000      0.00000000</v>
  </separator>
  <dos>
   <i name="efermi">     -1.25244830 </i>
   <total>
    <array>
     <dimension dim="1">gridpoints</dimension>
     <dimension dim="2">spin</dimension>
     <field>energy</field>
     <field>total</field>
     <field>integrated</field>
     <set>
      <set comment="spin 1">
       <r>   -23.7765     0.0000     0.0000 </r>
       <r>   -23.6860     0.0000     0.0000 </r>
       <r>   -23.5955     0.0000     0.0000 </r>
       <r>   -23.5050     0.0000     0.0000 </r>
       <r>   -23.4145     0.0000     0.0000 </r>
       <r>   -23.3240     0.0000     0.0000 </r>
       <r>   -23.2335     0.0000     0.0000 </r>
       <r>   -23.1430     0.0000     0.0000 </r>
       <r>   -23.0525     0.0000     0.0000 </r>
       <r>   -22.9620     0.0000     0.0000 </r>
       <r>   -22.8715     0.0000     0.0000 </r>
       <r>   -22.7810     0.0000     0.0000 </r>
       <r>   -22.6905     0.0000     0.0000 </r>
       <r>   -22.5999     0.0000     0.0000 </r>
       <r>   -22.5094    22.0986     2.0000 </r>
       <r>   -22.4189     0.0000     2.0000 </r>
       <r>   -22.3284     0.0000     2.0000 </r>
       <r>   -22.2379     0.0000     2.0000 </r>
       <r>   -22.1474     0.0000     2.0000 </r>
       <r>   -22.0569     0.0000     2.0000 </r>
       <r>   -21.9664    22.0986     4.0000 </r>
       <r>   -21.8759     0.0000     4.0000 </r>
       <r>   -21.7854     2.2013     4.1992 </r>
       <r>   -21.6949    30.7121     8.7795 </r>
       <r>   -21.6044    43.6658    13.9519 </r>
       <r>   -21.5139     0.0000    14.0000 </r>
       <r>   -21.4234     0.0000    14.0000 </r>
       <r>   -21.3329     0.0000    14.0000 </r>
       <r>   -21.2424     2.7566    14.2495 </r>
       <r>   -21.1519     0.0000    16.0000 </r>
       <r>   -21.0614    19.1348    17.7318 </r>
       <r>   -20.9709    32.7061    20.9600 </r>
       <r>   -20.8804    28.0946    24.5427 </r>
       <r>   -20.7899     0.0000    26.0000 </r>
       <r>   -20.6994    36.7510    29.3261 </r>
       <r>   -20.6089    22.3807    32.0255 </r>
       <r>   -20.5184    43.9152    36.0000 </r>
       <r>   -20.4279    11.4866    37.0396 </r>
       <r>   -20.3374     0.0000    38.0000 </r>
       <r>   -20.2469     0.0000    38.0000 </r>
       <r>   -20.1564     0.0000    38.0000 </r>
       <r>   -20.0659     0.0000    38.0000 </r>
       <r>   -19.9753    18.7479    39.6967 </r>
       <r>   -19.8848    22.0986    42.0000 </r>
       <r>   -19.7943    20.6392    43.8679 </r>
       <r>   -19.7038    89.7249    52.1204 </r>
       <r>   -19.6133    65.9964    59.9729 </r>
       <r>   -19.5228     0.0003    60.0000 </r>
       <r>   -19.4323    22.0989    62.0001 </r>
       <r>   -19.3418    66.0378    67.9767 </r>
       <r>   -19.2513    22.8312    70.0663 </r>
       <r>   -19.1608    21.3660    72.0000 </r>
       <r>   -19.0703    22.0986    74.0000 </r>
       <r>   -18.9798    21.9755    75.9889 </r>
       <r>   -18.8893    23.4400    78.1214 </r>
       <r>   -18.7988    64.9546    84.0000 </r>
       <r>   -18.7083    78.2060    91.0779 </r>
       <r>   -18.6178    21.9101    94.0000 </r>
       <r>   -18.5273     0.0000    94.0000 </r>
       <r>   -18.4368    19.2302    95.7404 </r>
       <r>   -18.3463     0.0000    96.0000 </r>
       <r>   -18.2558     0.0000    96.0000 </r>
       <r>   -18.1653     0.0000    96.0000 </r>
       <r>   -18.0748     0.0000    96.0000 </r>
       <r>   -17.9843     0.0000    96.0000 </r>
       <r>   -17.8938     0.0000    96.0000 </r>
       <r>   -17.8033     0.0000    96.0000 </r>
       <r>   -17.7128     0.0000    96.0000 </r>
       <r>   -17.6223     0.0000    96.0000 </r>
       <r>   -17.5318     0.0000    96.0000 </r>
       <r>   -17.4413     0.0000    96.0000 </r>
       <r>   -17.3507     0.0000    96.0000 </r>
       <r>   -17.2602     0.0000    96.0000 </r>
       <r>   -17.1697     0.0000    96.0000 </r>
       <r>   -17.0792     0.0000    96.0000 </r>
       <r>   -16.9887     0.0000    96.0000 </r>
       <r>   -16.8982     0.0000    96.0000 </r>
       <r>   -16.8077     0.0000    96.0000 </r>
       <r>   -16.7172     0.0000    96.0000 </r>
       <r>   -16.6267     0.0000    96.0000 </r>
       <r>   -16.5362     0.0000    96.0000 </r>
       <r>   -16.4457     0.0000    96.0000 </r>
       <r>   -16.3552     0.0000    96.0000 </r>
       <r>   -16.2647     0.0000    96.0000 </r>
       <r>   -16.1742     0.0000    96.0000 </r>
       <r>   -16.0837     0.0000    96.0000 </r>
       <r>   -15.9932     0.0000    96.0000 </r>
       <r>   -15.9027     0.0000    96.0000 </r>
       <r>   -15.8122     0.0000    96.0000 </r>
       <r>   -15.7217     0.0000    96.0000 </r>
       <r>   -15.6312     0.0000    96.0000 </r>
       <r>   -15.5407     0.0000    96.0000 </r>
       <r>   -15.4502     0.0000    96.0000 </r>
       <r>   -15.3597     0.0000    96.0000 </r>
       <r>   -15.2692     0.0000    96.0000 </r>
       <r>   -15.1787     0.0000    96.0000 </r>
       <r>   -15.0882     0.0000    96.0000 </r>
       <r>   -14.9977     0.0000    96.0000 </r>
       <r>   -14.9072     0.0000    96.0000 </r>
       <r>   -14.8167     0.0000    96.0000 </r>
       <r>   -14.7261     0.0000    96.0000 </r>
       <r>   -14.6356     0.0000    96.0000 </r>
       <r>   -14.5451     0.0000    96.0000 </r>
       <r>   -14.4546     0.0000    96.0000 </r>
       <r>   -14.3641     0.0000    96.0000 </r>
       <r>   -14.2736     0.0000    96.0000 </r>
       <r>   -14.1831     0.0000    96.0000 </r>
       <r>   -14.0926    22.0986    98.0000 </r>
       <r>   -14.0021     0.0000    98.0000 </r>
       <r>   -13.9116     0.0000    98.0000 </r>
       <r>   -13.8211     0.0000    98.0000 </r>
       <r>   -13.7306     0.0000    98.0000 </r>
       <r>   -13.6401     0.0000    98.0000 </r>
       <r>   -13.5496     0.0000    98.0000 </r>
       <r>   -13.4591     0.0000    98.0000 </r>
       <r>   -13.3686     0.0000    98.0000 </r>
       <r>   -13.2781     0.0000    98.0000 </r>
       <r>   -13.1876     5.1579    98.4668 </r>
       <r>   -13.0971    62.9780   105.6998 </r>
       <r>   -13.0066    38.1945   109.4806 </r>
       <r>   -12.9161    66.2378   115.9948 </r>
       <r>   -12.8256     0.0336   116.0030 </r>
       <r>   -12.7351    44.1635   120.0000 </r>
       <r>   -12.6446     0.0000   120.0000 </r>
       <r>   -12.5541    22.0986   122.0000 </r>
       <r>   -12.4636    44.1795   125.9984 </r>
       <r>   -12.3731    15.6941   127.4204 </r>
       <r>   -12.2826    43.7061   131.9556 </r>
       <r>   -12.1921     0.0554   132.0050 </r>
       <r>   -12.1015    22.0432   134.0000 </r>
       <r>   -12.0110     0.0000   134.0000 </r>
       <r>   -11.9205     0.0333   134.0030 </r>
       <r>   -11.8300    44.1639   138.0000 </r>
       <r>   -11.7395    80.1139   145.2506 </r>
       <r>   -11.6490    42.6272   149.8579 </r>
       <r>   -11.5585    22.2199   152.0184 </r>
       <r>   -11.4680    21.8956   154.0000 </r>
       <r>   -11.3775    22.0986   156.0000 </r>
       <r>   -11.2870     0.0000   156.0000 </r>
       <r>   -11.1965    15.1180   157.3682 </r>
       <r>   -11.1060    22.0494   159.9955 </r>
       <r>   -11.0155    44.1805   164.0000 </r>
       <r>   -10.9250    22.7498   166.0589 </r>
       <r>   -10.8345    21.4474   168.0000 </r>
       <r>   -10.7440     0.0000   168.0000 </r>
       <r>   -10.6535    22.0986   170.0000 </r>
       <r>   -10.5630     0.0000   170.0000 </r>
       <r>   -10.4725     1.2122   170.1097 </r>
       <r>   -10.3820    42.9852   174.0000 </r>
       <r>   -10.2915    22.0985   176.0000 </r>
       <r>   -10.2010    39.9980   179.6200 </r>
       <r>   -10.1105     0.0000   180.0000 </r>
       <r>   -10.0200     0.0000   180.0000 </r>
       <r>    -9.9295     0.0000   180.0000 </r>
       <r>    -9.8390    22.0986   182.0000 </r>
       <r>    -9.7485    43.8906   185.9722 </r>
       <r>    -9.6580    44.0704   189.9898 </r>
       <r>    -9.5675    21.8167   191.9745 </r>
       <r>    -9.4769    44.7051   196.0461 </r>
       <r>    -9.3864    21.5640   198.0000 </r>
       <r>    -9.2959    48.2447   202.3663 </r>
       <r>    -9.2054   158.3234   218.3288 </r>
       <r>    -9.1149    57.4163   229.1964 </r>
       <r>    -9.0244    42.8048   235.9853 </r>
       <r>    -8.9339    22.0984   238.0000 </r>
       <r>    -8.8434    14.5839   239.3199 </r>
       <r>    -8.7529    22.0986   242.0000 </r>
       <r>    -8.6624     3.1994   242.2896 </r>
       <r>    -8.5719     0.0000   244.0000 </r>
       <r>    -8.4814    31.7067   246.8696 </r>
       <r>    -8.3909    22.0986   250.0000 </r>
       <r>    -8.3004    22.0951   251.9997 </r>
       <r>    -8.2099    25.9391   254.3476 </r>
       <r>    -8.1194    83.3465   263.6445 </r>
       <r>    -8.0289    19.6282   265.7764 </r>
       <r>    -7.9384    43.7283   269.9576 </r>
       <r>    -7.8479    44.3862   274.0171 </r>
       <r>    -7.7574    66.3525   282.0051 </r>
       <r>    -7.6669   112.0987   292.1505 </r>
       <r>    -7.5764    44.1970   298.0000 </r>
       <r>    -7.4859     0.0000   298.0000 </r>
       <r>    -7.3954    67.7500   304.1316 </r>
       <r>    -7.3049    42.7430   308.0000 </r>
       <r>    -7.2144    22.0986   310.0000 </r>
       <r>    -7.1239     0.0000   310.0000 </r>
       <r>    -7.0334     0.0000   310.0000 </r>
       <r>    -6.9429     0.0000   310.0000 </r>
       <r>    -6.8523     0.0454   310.0041 </r>
       <r>    -6.7618    30.3653   312.7523 </r>
       <r>    -6.6713     0.0000   314.0000 </r>
       <r>    -6.5808    44.1923   317.9996 </r>
       <r>    -6.4903    75.8418   324.8639 </r>
       <r>    -6.3998   126.5709   337.4551 </r>
       <r>    -6.3093    62.0941   343.6197 </r>
       <r>    -6.2188     0.0000   344.0000 </r>
       <r>    -6.1283     0.1335   344.0121 </r>
       <r>    -6.0378    21.9651   346.0000 </r>
       <r>    -5.9473    22.0580   347.9963 </r>
       <r>    -5.8568    84.0729   355.6119 </r>
       <r>    -5.7663    42.7476   359.8688 </r>
       <r>    -5.6758     0.0000   360.0000 </r>
       <r>    -5.5853     0.0000   360.0000 </r>
       <r>    -5.4948    22.0986   362.0000 </r>
       <r>    -5.4043     0.0000   362.0000 </r>
       <r>    -5.3138     0.0000   362.0000 </r>
       <r>    -5.2233     6.3991   362.5791 </r>
       <r>    -5.1328    75.4986   370.8334 </r>
       <r>    -5.0423    22.0980   374.0000 </r>
       <r>    -4.9518    26.1909   376.3704 </r>
       <r>    -4.8613    66.2958   384.0000 </r>
       <r>    -4.7708     0.0000   384.0000 </r>
       <r>    -4.6803    22.0986   386.0000 </r>
       <r>    -4.5898     0.0000   386.0000 </r>
       <r>    -4.4993     0.0000   386.0000 </r>
       <r>    -4.4088     0.0000   386.0000 </r>
       <r>    -4.3183     0.0000   386.0000 </r>
       <r>    -4.2277     0.0000   386.0000 </r>
       <r>    -4.1372     0.0000   386.0000 </r>
       <r>    -4.0467     0.0000   386.0000 </r>
       <r>    -3.9562     0.0000   386.0000 </r>
       <r>    -3.8657     0.0000   386.0000 </r>
       <r>    -3.7752     0.0000   386.0000 </r>
       <r>    -3.6847     0.0000   386.0000 </r>
       <r>    -3.5942     0.0000   386.0000 </r>
       <r>    -3.5037     0.0000   386.0000 </r>
       <r>    -3.4132     0.0000   386.0000 </r>
       <r>    -3.3227     0.0000   386.0000 </r>
       <r>    -3.2322     0.0000   386.0000 </r>
       <r>    -3.1417     0.0000   386.0000 </r>
       <r>    -3.0512     0.0000   386.0000 </r>
       <r>    -2.9607     0.0000   386.0000 </r>
       <r>    -2.8702     0.0000   386.0000 </r>
       <r>    -2.7797     0.0000   386.0000 </r>
       <r>    -2.6892     0.0000   386.0000 </r>
       <r>    -2.5987     0.0000   386.0000 </r>
       <r>    -2.5082     0.0000   386.0000 </r>
       <r>    -2.4177     0.0000   386.0000 </r>
       <r>    -2.3272     0.0000   386.0000 </r>
       <r>    -2.2367     0.0000   386.0000 </r>
       <r>    -2.1462     0.0000   386.0000 </r>
       <r>    -2.0557     0.0000   386.0000 </r>
       <r>    -1.9652     0.0000   386.0000 </r>
       <r>    -1.8747     0.0000   386.0000 </r>
       <r>    -1.7842     0.0000   386.0000 </r>
       <r>    -1.6937     0.0000   386.0000 </r>
       <r>    -1.6031     0.0000   386.0000 </r>
       <r>    -1.5126     0.0000   386.0000 </r>
       <r>    -1.4221     0.0000   386.0000 </r>
       <r>    -1.3316     0.3374   386.0305 </r>
       <r>    -1.2411    21.7612   388.0000 </r>
       <r>    -1.1506    22.0986   390.0000 </r>
       <r>    -1.0601     0.0000   390.0000 </r>
       <r>    -0.9696     0.0000   390.0000 </r>
       <r>    -0.8791     0.0000   390.0000 </r>
       <r>    -0.7886     0.0000   390.0000 </r>
       <r>    -0.6981     0.0000   390.0000 </r>
       <r>    -0.6076     0.0000   390.0000 </r>
       <r>    -0.5171     0.0000   390.0000 </r>
       <r>    -0.4266     0.0000   390.0000 </r>
       <r>    -0.3361     0.0000   390.0000 </r>
       <r>    -0.2456     0.0000   390.0000 </r>
       <r>    -0.1551     0.0000   390.0000 </r>
       <r>    -0.0646     0.0000   390.0000 </r>
       <r>     0.0259     0.0001   390.0000 </r>
       <r>     0.1164    22.0986   392.0000 </r>
       <r>     0.2069    13.6355   393.2341 </r>
       <r>     0.2974    72.7563   400.5847 </r>
       <r>     0.3879    43.3889   406.0372 </r>
       <r>     0.4784    30.6197   410.7712 </r>
       <r>     0.5689    22.0986   414.0000 </r>
       <r>     0.6594    22.0986   416.0000 </r>
       <r>     0.7499    26.5834   418.4059 </r>
       <r>     0.8404    99.0907   428.9682 </r>
       <r>     0.9309    44.0884   434.0000 </r>
       <r>     1.0215    35.0164   437.1691 </r>
       <r>     1.1120    25.5750   440.3146 </r>
       <r>     1.2025     0.0000   442.0000 </r>
       <r>     1.2930     0.0000   442.0000 </r>
       <r>     1.3835     0.0000   442.0000 </r>
       <r>     1.4740     0.0285   442.0026 </r>
       <r>     1.5645    22.0701   444.0000 </r>
       <r>     1.6550     0.1273   444.0115 </r>
       <r>     1.7455   117.7225   454.6658 </r>
       <r>     1.8360    46.9546   460.2496 </r>
       <r>     1.9265   118.5944   472.7992 </r>
       <r>     2.0170    22.8629   476.0692 </r>
       <r>     2.1075    46.3802   480.2668 </r>
       <r>     2.1980    66.2634   488.0000 </r>
       <r>     2.2885     0.0000   488.0000 </r>
       <r>     2.3790     0.0000   488.0000 </r>
       <r>     2.4695     0.0000   488.0000 </r>
       <r>     2.5600     0.0000   488.0000 </r>
       <r>     2.6505     0.0000   488.0000 </r>
       <r>     2.7410     0.0000   488.0000 </r>
       <r>     2.8315     0.0000   488.0000 </r>
       <r>     2.9220     0.0000   488.0000 </r>
       <r>     3.0125     0.0000   488.0000 </r>
       <r>     3.1030     0.0000   488.0000 </r>
       <r>     3.1935     0.0000   488.0000 </r>
       <r>     3.2840     0.0000   488.0000 </r>
       <r>     3.3745     0.0000   488.0000 </r>
      </set>
     </set>
    </array>
   </total>
  </dos>
 </calculation>
 <structure name="finalpos" >
  <crystal>
   <varray name="basis" >
    <v>      17.59966831       0.00000000       0.00000000 </v>
    <v>      -8.79983416      15.24175986       0.00000000 </v>
    <v>       0.00000000       0.00000000      19.92151445 </v>
   </varray>
   <i name="volume">   5343.94461817 </i>
   <varray name="rec_basis" >
    <v>       0.05681925       0.03280461       0.00000000 </v>
    <v>       0.00000000       0.06560922       0.00000000 </v>
    <v>       0.00000000       0.00000000       0.05019699 </v>
   </varray>
  </crystal>
  <varray name="positions" >
   <v>       0.99943010       0.00005992       0.50000000 </v>
   <v>       0.14164706       0.99928715       0.50000000 </v>
   <v>       0.28492260       0.99841663       0.50000000 </v>
   <v>       0.42850047       0.99871895       0.50000000 </v>
   <v>       0.57205839       0.00005992       0.50000000 </v>
   <v>       0.71530655       0.00214292       0.50000000 </v>
   <v>       0.85826494       0.00214292       0.50000000 </v>
   <v>       0.00080792       0.14408264       0.50000000 </v>
   <v>       0.14259355       0.14244783       0.50000000 </v>
   <v>       0.28470221       0.14112972       0.50000000 </v>
   <v>       0.42785608       0.14112972       0.50000000 </v>
   <v>       0.57128286       0.14244783       0.50000000 </v>
   <v>       0.71470329       0.14408264       0.50000000 </v>
   <v>       0.85805263       0.14467669       0.50000000 </v>
   <v>       0.00095476       0.28713011       0.50000000 </v>
   <v>       0.14372552       0.28645370       0.50000000 </v>
   <v>       0.28540977       0.28469374       0.50000000 </v>
   <v>       0.42724431       0.28306005       0.50000000 </v>
   <v>       0.57071254       0.28469374       0.50000000 </v>
   <v>       0.71415674       0.28645370       0.50000000 </v>
   <v>       0.85760392       0.28713011       0.50000000 </v>
   <v>       0.00054479       0.42966101       0.50000000 </v>
   <v>       0.14422690       0.42957551       0.50000000 </v>
   <v>       0.28730213       0.42918005       0.50000000 </v>
   <v>       0.42797654       0.42569726       0.50000000 </v>
   <v>       0.56914930       0.42569726       0.50000000 </v>
   <v>       0.71330650       0.42918005       0.50000000 </v>
   <v>       0.85677719       0.42957551       0.50000000 </v>
   <v>       0.99928255       0.57181462       0.50000000 </v>
   <v>       0.14396064       0.57181462       0.50000000 </v>
   <v>       0.28862787       0.57181625       0.50000000 </v>
   <v>       0.43313209       0.57215564       0.50000000 </v>
   <v>       0.71045212       0.57215564       0.50000000 </v>
   <v>       0.85461695       0.57181625       0.50000000 </v>
   <v>       0.99707234       0.71370518       0.50000000 </v>
   <v>       0.14255519       0.71368182       0.50000000 </v>
   <v>       0.28806142       0.71370518       0.50000000 </v>
   <v>       0.43464191       0.71382540       0.50000000 </v>
   <v>       0.58510826       0.71626937       0.50000000 </v>
   <v>       0.70258968       0.71626937       0.50000000 </v>
   <v>       0.85061206       0.71382540       0.50000000 </v>
   <v>       0.99777175       0.85613493       0.50000000 </v>
   <v>       0.14160898       0.85591288       0.50000000 </v>
   <v>       0.28573247       0.85591288       0.50000000 </v>
   <v>       0.42979175       0.85613493       0.50000000 </v>
   <v>       0.57342541       0.85758690       0.50000000 </v>
   <v>       0.71640633       0.86138410       0.50000000 </v>
   <v>       0.85559006       0.85758690       0.50000000 </v>
   <v>       0.04754270       0.09547788       0.50000000 </v>
   <v>       0.18957833       0.09405657       0.50000000 </v>
   <v>       0.33254182       0.09365506       0.50000000 </v>
   <v>       0.47590681       0.09405657       0.50000000 </v>
   <v>       0.61936376       0.09547788       0.50000000 </v>
   <v>       0.76280004       0.09719274       0.50000000 </v>
   <v>       0.90582126       0.09719274       0.50000000 </v>
   <v>       0.04854983       0.23934281       0.50000000 </v>
   <v>       0.19048138       0.23782962       0.50000000 </v>
   <v>       0.33234878       0.23634667       0.50000000 </v>
   <v>       0.47542646       0.23634667       0.50000000 </v>
   <v>       0.61877681       0.23782962       0.50000000 </v>
   <v>       0.76222155       0.23934281       0.50000000 </v>
   <v>       0.90562797       0.23982737       0.50000000 </v>
   <v>       0.04871288       0.38232824       0.50000000 </v>
   <v>       0.19188940       0.38184213       0.50000000 </v>
   <v>       0.33352206       0.38013969       0.50000000 </v>
   <v>       0.47472270       0.37801683       0.50000000 </v>
   <v>       0.61804620       0.38013969       0.50000000 </v>
   <v>       0.76138130       0.38184213       0.50000000 </v>
   <v>       0.90504393       0.38232824       0.50000000 </v>
   <v>       0.04810654       0.52478452       0.50000000 </v>
   <v>       0.19263929       0.52476864       0.50000000 </v>
   <v>       0.33696521       0.52455433       0.50000000 </v>
   <v>       0.47833704       0.52146721       0.50000000 </v>
   <v>       0.61455874       0.52146721       0.50000000 </v>
   <v>       0.75901769       0.52455433       0.50000000 </v>
   <v>       0.90355792       0.52476864       0.50000000 </v>
   <v>       0.04642473       0.66685228       0.50000000 </v>
   <v>       0.19185612       0.66685228       0.50000000 </v>
   <v>       0.33777931       0.66688794       0.50000000 </v>
   <v>       0.48615700       0.66710760       0.50000000 </v>
   <v>       0.75237918       0.66710760       0.50000000 </v>
   <v>       0.90053720       0.66688794       0.50000000 </v>
   <v>       0.04582562       0.80879365       0.50000000 </v>
   <v>       0.19009580       0.80876303       0.50000000 </v>
   <v>       0.33439660       0.80879365       0.50000000 </v>
   <v>       0.47844872       0.80897069       0.50000000 </v>
   <v>       0.62209487       0.81129474       0.50000000 </v>
   <v>       0.76062845       0.81129474       0.50000000 </v>
   <v>       0.90195054       0.80897069       0.50000000 </v>
   <v>       0.04629157       0.95154386       0.50000000 </v>
   <v>       0.18948291       0.95113037       0.50000000 </v>
   <v>       0.33307603       0.95113037       0.50000000 </v>
   <v>       0.47668087       0.95154386       0.50000000 </v>
   <v>       0.62015751       0.95313740       0.50000000 </v>
   <v>       0.76355772       0.95568687       0.50000000 </v>
   <v>       0.90440847       0.95313740       0.50000000 </v>
   <v>       0.56830873       0.56518888       0.50000000 </v>
  </varray>
 </structure>
</modeling>
