<?xml version="1.0" encoding="ISO-8859-1"?>
<modeling>
 <generator>
  <i name="program" type="string">vasp </i>
  <i name="version" type="string">5.4.4.18Apr17-6-g9f103f2a35  </i>
  <i name="subversion" type="string">(build Oct 18 2020 22:16:12) gamma-only         parallel </i>
  <i name="platform" type="string">UA-vaughan-2020a </i>
  <i name="date" type="string">2023 03 21 </i>
  <i name="time" type="string">22:49:03 </i>
 </generator>
 <incar>
  <i type="string" name="PREC">accurate</i>
  <i type="int" name="IALGO">    38</i>
  <i type="logical" name="ADDGRID"> T  </i>
  <i type="int" name="NELMIN">     5</i>
  <i type="int" name="IBRION">    -1</i>
  <i name="EDIFF">      0.00000001</i>
  <i name="EDIFFG">     -0.00000001</i>
  <i type="int" name="NSW">     0</i>
  <i type="int" name="ISIF">     2</i>
  <i name="ENCUT">    500.00000000</i>
  <i type="logical" name="LREAL"> F  </i>
  <i type="int" name="ISMEAR">     0</i>
  <i name="SIGMA">      0.01000000</i>
  <i type="logical" name="LWAVE"> F  </i>
  <i type="logical" name="LCHARG"> F  </i>
  <v type="int" name="KPOINT_BSE">    -1     0     0     0</v>
 </incar>
 <structure name="primitive_cell" >
  <crystal>
   <varray name="basis" >
    <v>      17.59966831       0.00000000       0.00000000 </v>
    <v>      -8.79983416      15.24175986       0.00000000 </v>
    <v>       0.00000000       0.00000000      19.92151445 </v>
   </varray>
   <i name="volume">   5343.94461817 </i>
   <varray name="rec_basis" >
    <v>       0.05681925       0.03280461       0.00000000 </v>
    <v>       0.00000000       0.06560922       0.00000000 </v>
    <v>       0.00000000       0.00000000       0.05019699 </v>
   </varray>
  </crystal>
  <varray name="positions" >
   <v>      -0.00056990       0.00005992      -0.50000000 </v>
   <v>      -0.09559153      -0.04686260      -0.50000000 </v>
   <v>       0.04629157      -0.04845614      -0.50000000 </v>
   <v>       0.04754270       0.09547788      -0.50000000 </v>
   <v>      -0.14173506       0.00214292      -0.50000000 </v>
   <v>       0.14259355       0.14244783      -0.50000000 </v>
   <v>       0.14164706      -0.00128105      -0.50000000 </v>
   <v>      -0.00222825      -0.14386507      -0.50000000 </v>
   <v>      -0.14440994      -0.14241310      -0.50000000 </v>
   <v>       0.00080792       0.14408264      -0.50000000 </v>
   <v>       0.18957833       0.09405657      -0.50000000 </v>
   <v>      -0.09417874       0.09719274      -0.50000000 </v>
   <v>      -0.09804946      -0.19102931      -0.50000000 </v>
   <v>      -0.23644228      -0.04431313      -0.50000000 </v>
   <v>      -0.23937155      -0.18870526      -0.50000000 </v>
   <v>       0.19048138       0.23782962      -0.50000000 </v>
   <v>       0.04582562      -0.19120635      -0.50000000 </v>
   <v>       0.18948291      -0.04886963      -0.50000000 </v>
   <v>       0.04854983       0.23934281      -0.50000000 </v>
   <v>      -0.28359367      -0.13861590      -0.50000000 </v>
   <v>       0.28470221       0.14112972      -0.50000000 </v>
   <v>      -0.14194737       0.14467669      -0.50000000 </v>
   <v>      -0.14938794      -0.28617460      -0.50000000 </v>
   <v>       0.14160898      -0.14408712      -0.50000000 </v>
   <v>       0.14372552       0.28645370      -0.50000000 </v>
   <v>      -0.28469345       0.00214292      -0.50000000 </v>
   <v>      -0.00292766      -0.28629482      -0.50000000 </v>
   <v>       0.28540977       0.28469374      -0.50000000 </v>
   <v>       0.00095476       0.28713011      -0.50000000 </v>
   <v>       0.28492260      -0.00158337      -0.50000000 </v>
   <v>      -0.29741032      -0.28373063      -0.50000000 </v>
   <v>      -0.09946280      -0.33311206      -0.50000000 </v>
   <v>       0.33234878       0.23634667      -0.50000000 </v>
   <v>      -0.23719996       0.09719274      -0.50000000 </v>
   <v>       0.33254182       0.09403125      -0.49962381 </v>
   <v>      -0.09437203       0.23982737      -0.50000000 </v>
   <v>      -0.24762082      -0.33289240      -0.50000000 </v>
   <v>      -0.37790513      -0.18870526      -0.50000000 </v>
   <v>       0.19188940       0.38184213      -0.50000000 </v>
   <v>       0.19009580      -0.19123697      -0.50000000 </v>
   <v>      -0.37984249      -0.04686260      -0.50000000 </v>
   <v>       0.04642473      -0.33314772      -0.50000000 </v>
   <v>       0.33352206       0.38013969      -0.50000000 </v>
   <v>       0.04871288       0.38232824      -0.50000000 </v>
   <v>       0.33307603      -0.04886963      -0.50000000 </v>
   <v>      -0.41489174      -0.28373063      -0.50000000 </v>
   <v>      -0.42657459      -0.14241310      -0.50000000 </v>
   <v>       0.42724431       0.28306005      -0.50000000 </v>
   <v>      -0.14538305      -0.42818375      -0.50000000 </v>
   <v>      -0.28529671       0.14408264      -0.50000000 </v>
   <v>      -0.28954788      -0.42784436      -0.50000000 </v>
   <v>       0.42785608       0.14112972      -0.50000000 </v>
   <v>      -0.14239608       0.28713011      -0.50000000 </v>
   <v>       0.14422690       0.42957551      -0.50000000 </v>
   <v>       0.28730213       0.42918005      -0.50000000 </v>
   <v>       0.14255519      -0.28631818      -0.50000000 </v>
   <v>       0.28573247      -0.14408712      -0.50000000 </v>
   <v>      -0.24098231      -0.47544567      -0.50000000 </v>
   <v>       0.47542646       0.23634667      -0.50000000 </v>
   <v>      -0.23777845       0.23934281      -0.50000000 </v>
   <v>       0.42797654       0.42569726      -0.50000000 </v>
   <v>      -0.42794161       0.00005992      -0.50000000 </v>
   <v>      -0.00071745      -0.42818538      -0.50000000 </v>
   <v>       0.00054479       0.42966101      -0.50000000 </v>
   <v>       0.42850047      -0.00128105      -0.50000000 </v>
   <v>      -0.43169127      -0.43481112      -0.50000000 </v>
   <v>       0.47472270       0.37801683      -0.50000000 </v>
   <v>      -0.09644208      -0.47523136      -0.50000000 </v>
   <v>      -0.38063624       0.09547788      -0.50000000 </v>
   <v>       0.47590681       0.09405657      -0.50000000 </v>
   <v>      -0.09495607       0.38232824      -0.50000000 </v>
   <v>      -0.38544126      -0.47853279      -0.50000000 </v>
   <v>       0.48615700      -0.33289240      -0.50000000 </v>
   <v>       0.47844872      -0.19102931      -0.50000000 </v>
   <v>       0.19263929      -0.47523136      -0.50000000 </v>
   <v>       0.33696521      -0.47544567      -0.50000000 </v>
   <v>       0.19185612      -0.33314772      -0.50000000 </v>
   <v>       0.33439660      -0.19120635      -0.50000000 </v>
   <v>       0.43464191      -0.28617460      -0.50000000 </v>
   <v>      -0.28669350       0.42918005      -0.50000000 </v>
   <v>      -0.42928746       0.28469374      -0.50000000 </v>
   <v>      -0.28584326       0.28645370      -0.50000000 </v>
   <v>       0.28862787      -0.42818375      -0.50000000 </v>
   <v>       0.28806142      -0.28629482      -0.50000000 </v>
   <v>       0.47668087      -0.04845614      -0.50000000 </v>
   <v>       0.47833704      -0.47853279      -0.50000000 </v>
   <v>       0.04810654      -0.47521548      -0.50000000 </v>
   <v>       0.43313209      -0.42784436      -0.50000000 </v>
   <v>       0.42979175      -0.14386507      -0.50000000 </v>
   <v>      -0.43085070       0.42569726      -0.50000000 </v>
   <v>      -0.14322281       0.42957551      -0.50000000 </v>
   <v>      -0.42871714       0.14244783      -0.50000000 </v>
   <v>       0.14396064      -0.42818538      -0.50000000 </v>
   <v>      -0.23861870       0.38184213      -0.50000000 </v>
   <v>      -0.38122319       0.23782962      -0.50000000 </v>
   <v>      -0.38195380       0.38013969      -0.50000000 </v>
   <v>       0.33777931      -0.33311206      -0.50000000 </v>
  </varray>
 </structure>
 <varray name="primitive_index" >
  <v type="int" >        1 </v>
  <v type="int" >       96 </v>
  <v type="int" >       90 </v>
  <v type="int" >       49 </v>
  <v type="int" >        7 </v>
  <v type="int" >        9 </v>
  <v type="int" >        2 </v>
  <v type="int" >       42 </v>
  <v type="int" >       48 </v>
  <v type="int" >        8 </v>
  <v type="int" >       50 </v>
  <v type="int" >       55 </v>
  <v type="int" >       89 </v>
  <v type="int" >       95 </v>
  <v type="int" >       88 </v>
  <v type="int" >       57 </v>
  <v type="int" >       83 </v>
  <v type="int" >       91 </v>
  <v type="int" >       56 </v>
  <v type="int" >       47 </v>
  <v type="int" >       10 </v>
  <v type="int" >       14 </v>
  <v type="int" >       41 </v>
  <v type="int" >       43 </v>
  <v type="int" >       16 </v>
  <v type="int" >        6 </v>
  <v type="int" >       35 </v>
  <v type="int" >       17 </v>
  <v type="int" >       15 </v>
  <v type="int" >        3 </v>
  <v type="int" >       40 </v>
  <v type="int" >       82 </v>
  <v type="int" >       58 </v>
  <v type="int" >       54 </v>
  <v type="int" >       51 </v>
  <v type="int" >       62 </v>
  <v type="int" >       81 </v>
  <v type="int" >       87 </v>
  <v type="int" >       64 </v>
  <v type="int" >       84 </v>
  <v type="int" >       94 </v>
  <v type="int" >       77 </v>
  <v type="int" >       65 </v>
  <v type="int" >       63 </v>
  <v type="int" >       92 </v>
  <v type="int" >       39 </v>
  <v type="int" >       46 </v>
  <v type="int" >       18 </v>
  <v type="int" >       34 </v>
  <v type="int" >       13 </v>
  <v type="int" >       33 </v>
  <v type="int" >       11 </v>
  <v type="int" >       21 </v>
  <v type="int" >       23 </v>
  <v type="int" >       24 </v>
  <v type="int" >       36 </v>
  <v type="int" >       44 </v>
  <v type="int" >       75 </v>
  <v type="int" >       59 </v>
  <v type="int" >       61 </v>
  <v type="int" >       25 </v>
  <v type="int" >        5 </v>
  <v type="int" >       29 </v>
  <v type="int" >       22 </v>
  <v type="int" >        4 </v>
  <v type="int" >       97 </v>
  <v type="int" >       66 </v>
  <v type="int" >       76 </v>
  <v type="int" >       53 </v>
  <v type="int" >       52 </v>
  <v type="int" >       69 </v>
  <v type="int" >       74 </v>
  <v type="int" >       80 </v>
  <v type="int" >       86 </v>
  <v type="int" >       71 </v>
  <v type="int" >       72 </v>
  <v type="int" >       78 </v>
  <v type="int" >       85 </v>
  <v type="int" >       38 </v>
  <v type="int" >       27 </v>
  <v type="int" >       19 </v>
  <v type="int" >       20 </v>
  <v type="int" >       31 </v>
  <v type="int" >       37 </v>
  <v type="int" >       93 </v>
  <v type="int" >       73 </v>
  <v type="int" >       70 </v>
  <v type="int" >       32 </v>
  <v type="int" >       45 </v>
  <v type="int" >       26 </v>
  <v type="int" >       28 </v>
  <v type="int" >       12 </v>
  <v type="int" >       30 </v>
  <v type="int" >       68 </v>
  <v type="int" >       60 </v>
  <v type="int" >       67 </v>
  <v type="int" >       79 </v>
 </varray>
 <kpoints>
  <generation param="Gamma">
   <v type="int" name="divisions">       1        1        1 </v>
   <v name="usershift">      0.00000000       0.00000000       0.00000000 </v>
   <v name="genvec1">      1.00000000      -0.00000000       0.00000000 </v>
   <v name="genvec2">      0.00000000       1.00000000       0.00000000 </v>
   <v name="genvec3">      0.00000000       0.00000000       1.00000000 </v>
   <v name="shift">      0.00000000       0.00000000       0.00000000 </v>
  </generation>
  <varray name="kpointlist" >
   <v>       0.00000000       0.00000000       0.00000000 </v>
  </varray>
  <varray name="weights" >
   <v>       1.00000000 </v>
  </varray>
 </kpoints>
 <parameters>
  <separator name="general" >
   <i type="string" name="SYSTEM">unknown system</i>
   <i type="logical" name="LCOMPAT"> F  </i>
  </separator>
  <separator name="electronic" >
   <i type="string" name="PREC">accura</i>
   <i name="ENMAX">    500.00000000</i>
   <i name="ENAUG">    644.87300000</i>
   <i name="EDIFF">      0.00000001</i>
   <i type="int" name="IALGO">    38</i>
   <i type="int" name="IWAVPR">    10</i>
   <i type="int" name="NBANDS">   244</i>
   <i name="NELECT">    388.00000000</i>
   <i type="int" name="TURBO">     0</i>
   <i type="int" name="IRESTART">     0</i>
   <i type="int" name="NREBOOT">     0</i>
   <i type="int" name="NMIN">     0</i>
   <i name="EREF">      0.00000000</i>
   <separator name="electronic smearing" >
    <i type="int" name="ISMEAR">     0</i>
    <i name="SIGMA">      0.01000000</i>
    <i name="KSPACING">      0.50000000</i>
    <i type="logical" name="KGAMMA"> T  </i>
   </separator>
   <separator name="electronic projectors" >
    <i type="logical" name="LREAL"> F  </i>
    <v name="ROPT">      0.00000000      0.00000000      0.00000000</v>
    <i type="int" name="LMAXPAW">  -100</i>
    <i type="int" name="LMAXMIX">     2</i>
    <i type="logical" name="NLSPLINE"> F  </i>
   </separator>
   <separator name="electronic startup" >
    <i type="int" name="ISTART">     0</i>
    <i type="int" name="ICHARG">     2</i>
    <i type="int" name="INIWAV">     1</i>
   </separator>
   <separator name="electronic spin" >
    <i type="int" name="ISPIN">     1</i>
    <i type="logical" name="LNONCOLLINEAR"> F  </i>
    <v name="MAGMOM">      1.00000000      1.00000000      1.00000000      1.00000000      1.00000000      1.00000000      1.00000000      1.00000000      1.00000000      1.00000000      1.00000000      1.00000000      1.00000000      1.00000000      1.00000000      1.00000000      1.00000000      1.00000000      1.00000000      1.00000000
      1.00000000      1.00000000      1.00000000      1.00000000      1.00000000      1.00000000      1.00000000      1.00000000      1.00000000      1.00000000      1.00000000      1.00000000      1.00000000      1.00000000      1.00000000      1.00000000      1.00000000      1.00000000      1.00000000      1.00000000
      1.00000000      1.00000000      1.00000000      1.00000000      1.00000000      1.00000000      1.00000000      1.00000000      1.00000000      1.00000000      1.00000000      1.00000000      1.00000000      1.00000000      1.00000000      1.00000000      1.00000000      1.00000000      1.00000000      1.00000000
      1.00000000      1.00000000      1.00000000      1.00000000      1.00000000      1.00000000      1.00000000      1.00000000      1.00000000      1.00000000      1.00000000      1.00000000      1.00000000      1.00000000      1.00000000      1.00000000      1.00000000      1.00000000      1.00000000      1.00000000
      1.00000000      1.00000000      1.00000000      1.00000000      1.00000000      1.00000000      1.00000000      1.00000000      1.00000000      1.00000000      1.00000000      1.00000000      1.00000000      1.00000000      1.00000000      1.00000000      1.00000000</v>
    <i name="NUPDOWN">     -1.00000000</i>
    <i type="logical" name="LSORBIT"> F  </i>
    <v name="SAXIS">      0.00000000      0.00000000      1.00000000</v>
    <i type="logical" name="LSPIRAL"> F  </i>
    <v name="QSPIRAL">      0.00000000      0.00000000      0.00000000</v>
    <i type="logical" name="LZEROZ"> F  </i>
   </separator>
   <separator name="electronic exchange-correlation" >
    <i type="logical" name="LASPH"> F  </i>
    <i type="logical" name="LMETAGGA"> F  </i>
   </separator>
   <separator name="electronic convergence" >
    <i type="int" name="NELM">    60</i>
    <i type="int" name="NELMDL">    -5</i>
    <i type="int" name="NELMIN">     5</i>
    <i name="ENINI">    500.00000000</i>
    <separator name="electronic convergence detail" >
     <i type="logical" name="LDIAG"> T  </i>
     <i type="logical" name="LSUBROT"> F  </i>
     <i name="WEIMIN">      0.00000000</i>
     <i name="EBREAK">      0.00000000</i>
     <i name="DEPER">      0.30000000</i>
     <i type="int" name="NRMM">     4</i>
     <i name="TIME">      0.40000000</i>
    </separator>
   </separator>
   <separator name="electronic mixer" >
    <i name="AMIX">      0.40000000</i>
    <i name="BMIX">      1.00000000</i>
    <i name="AMIN">      0.10000000</i>
    <i name="AMIX_MAG">      1.60000000</i>
    <i name="BMIX_MAG">      1.00000000</i>
    <separator name="electronic mixer details" >
     <i type="int" name="IMIX">     4</i>
     <i type="logical" name="MIXFIRST"> F  </i>
     <i type="int" name="MAXMIX">   -45</i>
     <i name="WC">    100.00000000</i>
     <i type="int" name="INIMIX">     1</i>
     <i type="int" name="MIXPRE">     1</i>
     <i type="int" name="MREMOVE">     5</i>
    </separator>
   </separator>
   <separator name="electronic dipolcorrection" >
    <i type="logical" name="LDIPOL"> F  </i>
    <i type="logical" name="LMONO"> F  </i>
    <i type="int" name="IDIPOL">     0</i>
    <i name="EPSILON">      1.00000000</i>
    <v name="DIPOL">   -100.00000000   -100.00000000   -100.00000000</v>
    <i name="EFIELD">      0.00000000</i>
   </separator>
  </separator>
  <separator name="grids" >
   <i type="int" name="NGX">   128</i>
   <i type="int" name="NGY">   128</i>
   <i type="int" name="NGZ">   150</i>
   <i type="int" name="NGXF">   256</i>
   <i type="int" name="NGYF">   256</i>
   <i type="int" name="NGZF">   300</i>
   <i type="logical" name="ADDGRID"> T  </i>
  </separator>
  <separator name="ionic" >
   <i type="int" name="NSW">     0</i>
   <i type="int" name="IBRION">    -1</i>
   <i type="int" name="MDALGO">     0</i>
   <i type="int" name="ISIF">     2</i>
   <i name="PSTRESS">      0.00000000</i>
   <i name="EDIFFG">     -0.00000001</i>
   <i type="int" name="NFREE">     0</i>
   <i name="POTIM">      0.50000000</i>
   <i name="SMASS">     -3.00000000</i>
   <i name="SCALEE">      1.00000000</i>
  </separator>
  <separator name="ionic md" >
   <i name="TEBEG">      0.00010000</i>
   <i name="TEEND">      0.00010000</i>
   <i type="int" name="NBLOCK">     1</i>
   <i type="int" name="KBLOCK">     1</i>
   <i type="int" name="NPACO">   256</i>
   <i name="APACO">     16.00000000</i>
  </separator>
  <separator name="symmetry" >
   <i type="int" name="ISYM">     2</i>
   <i name="SYMPREC">      0.00001000</i>
  </separator>
  <separator name="dos" >
   <i type="int" name="LORBIT">     0</i>
   <v name="RWIGS">     -1.00000000     -1.00000000     -1.00000000</v>
   <i type="int" name="NEDOS">   301</i>
   <i name="EMIN">     10.00000000</i>
   <i name="EMAX">    -10.00000000</i>
   <i name="EFERMI">      0.00000000</i>
  </separator>
  <separator name="writing" >
   <i type="int" name="NWRITE">     2</i>
   <i type="logical" name="LWAVE"> F  </i>
   <i type="logical" name="LDOWNSAMPLE"> F  </i>
   <i type="logical" name="LCHARG"> F  </i>
   <i type="logical" name="LPARD"> F  </i>
   <i type="logical" name="LVTOT"> F  </i>
   <i type="logical" name="LVHAR"> F  </i>
   <i type="logical" name="LELF"> F  </i>
   <i type="logical" name="LOPTICS"> F  </i>
   <v name="STM">      0.00000000      0.00000000      0.00000000      0.00000000      0.00000000      0.00000000      0.00000000</v>
  </separator>
  <separator name="performance" >
   <i type="int" name="NPAR">     4</i>
   <i type="int" name="NSIM">     4</i>
   <i type="int" name="NBLK">    -1</i>
   <i type="logical" name="LPLANE"> T  </i>
   <i type="logical" name="LSCALAPACK"> T  </i>
   <i type="logical" name="LSCAAWARE"> F  </i>
   <i type="logical" name="LSCALU"> F  </i>
   <i type="logical" name="LASYNC"> F  </i>
   <i type="logical" name="LORBITALREAL"> F  </i>
  </separator>
  <separator name="miscellaneous" >
   <i type="int" name="IDIOT">     3</i>
   <i type="int" name="ISPECIAL">     0</i>
   <i type="logical" name="LMUSIC"> F  </i>
   <v name="POMASS">     10.81100000     14.00100000     12.01100000</v>
   <v name="DARWINR">      0.00000000      0.00000000      0.00000000</v>
   <v name="DARWINV">      1.00000000      1.00000000      1.00000000</v>
   <i type="logical" name="LCORR"> T  </i>
  </separator>
  <i type="logical" name="GGA_COMPAT"> T  </i>
  <i type="logical" name="LBERRY"> F  </i>
  <i type="int" name="ICORELEVEL">     0</i>
  <i type="logical" name="LDAU"> F  </i>
  <i type="int" name="I_CONSTRAINED_M">     0</i>
  <separator name="electronic exchange-correlation" >
   <i type="string" name="GGA">--</i>
   <i type="int" name="VOSKOWN">     0</i>
   <i type="logical" name="LHFCALC"> F  </i>
   <i type="string" name="PRECFOCK"></i>
   <i type="logical" name="LSYMGRAD"> F  </i>
   <i type="logical" name="LHFONE"> F  </i>
   <i type="logical" name="LRHFCALC"> F  </i>
   <i type="logical" name="LTHOMAS"> F  </i>
   <i type="logical" name="LMODELHF"> F  </i>
   <i name="ENCUT4O">     -1.00000000</i>
   <i type="int" name="EXXOEP">     0</i>
   <i type="int" name="FOURORBIT">     0</i>
   <i name="AEXX">      0.00000000</i>
   <i name="HFALPHA">      0.00000000</i>
   <i name="MCALPHA">      0.00000000</i>
   <i name="ALDAX">      1.00000000</i>
   <i name="AGGAX">      1.00000000</i>
   <i name="ALDAC">      1.00000000</i>
   <i name="AGGAC">      1.00000000</i>
   <i type="int" name="NKREDX">     1</i>
   <i type="int" name="NKREDY">     1</i>
   <i type="int" name="NKREDZ">     1</i>
   <i type="logical" name="SHIFTRED"> F  </i>
   <i type="logical" name="ODDONLY"> F  </i>
   <i type="logical" name="EVENONLY"> F  </i>
   <i type="int" name="LMAXFOCK">     0</i>
   <i type="int" name="NMAXFOCKAE">     0</i>
   <i type="logical" name="LFOCKAEDFT"> F  </i>
   <i name="HFSCREEN">      0.00000000</i>
   <i name="HFSCREENC">      0.00000000</i>
   <i type="int" name="NBANDSGWLOW">     0</i>
  </separator>
  <separator name="vdW DFT" >
   <i type="logical" name="LUSE_VDW"> F  </i>
   <i name="Zab_VDW">     -0.84910000</i>
   <i name="PARAM1">      0.12340000</i>
   <i name="PARAM2">      1.00000000</i>
   <i name="PARAM3">      0.00000000</i>
  </separator>
  <separator name="model GW" >
   <i type="int" name="MODEL_GW">     0</i>
   <i name="MODEL_EPS0">     33.05532754</i>
   <i name="MODEL_ALPHA">      1.00000000</i>
  </separator>
  <separator name="linear response parameters" >
   <i type="logical" name="LEPSILON"> F  </i>
   <i type="logical" name="LRPA"> F  </i>
   <i type="logical" name="LNABLA"> F  </i>
   <i type="logical" name="LVEL"> F  </i>
   <i type="int" name="KINTER">     0</i>
   <i name="CSHIFT">      0.10000000</i>
   <i name="OMEGAMAX">     -1.00000000</i>
   <i name="DEG_THRESHOLD">      0.00200000</i>
   <i name="RTIME">     -0.10000000</i>
   <i name="WPLASMAI">      0.00000000</i>
   <v name="DFIELD">      0.00000000      0.00000000      0.00000000</v>
   <v name="WPLASMA">      0.00000000      0.00000000      0.00000000      0.00000000      0.00000000      0.00000000      0.00000000      0.00000000      0.00000000</v>
  </separator>
  <separator name="orbital magnetization" >
   <i type="logical" name="NUCIND"> F  </i>
   <v name="MAGPOS">      0.00000000      0.00000000      0.00000000</v>
   <i type="logical" name="LNICSALL"> T  </i>
   <i type="logical" name="ORBITALMAG"> F  </i>
   <i type="logical" name="LMAGBLOCH"> F  </i>
   <i type="logical" name="LCHIMAG"> F  </i>
   <i type="logical" name="LGAUGE"> T  </i>
   <i type="int" name="MAGATOM">     0</i>
   <v name="MAGDIPOL">      0.00000000      0.00000000      0.00000000</v>
   <v name="AVECCONST">      0.00000000      0.00000000      0.00000000</v>
  </separator>
  <separator name="response functions" >
   <i type="logical" name="LADDER"> F  </i>
   <i type="logical" name="LRPAFORCE"> F  </i>
   <i type="logical" name="LFXC"> F  </i>
   <i type="logical" name="LHARTREE"> T  </i>
   <i type="int" name="IBSE">     0</i>
   <v type="int" name="KPOINT">    -1     0     0     0</v>
   <i type="logical" name="LTCTE"> F  </i>
   <i type="logical" name="LTETE"> F  </i>
   <i type="logical" name="LTRIPLET"> F  </i>
   <i type="logical" name="LFXCEPS"> F  </i>
   <i type="logical" name="LFXHEG"> F  </i>
   <i type="int" name="NATURALO">     2</i>
   <i type="logical" name="L2ORDER"> F  </i>
   <i type="logical" name="LMP2LT"> F  </i>
   <i type="logical" name="LUSEW"> F  </i>
   <i name="ENCUTGW">     -2.00000000</i>
   <i name="ENCUTGWSOFT">     -2.00000000</i>
   <i name="ENCUTLF">     -1.00000000</i>
   <i type="int" name="LMAXMP2">    -1</i>
   <i name="SCISSOR">      0.00000000</i>
   <i type="int" name="NOMEGA">     0</i>
   <i type="int" name="NOMEGAR">     0</i>
   <i type="int" name="NBANDSGW">    -1</i>
   <i type="int" name="NBANDSO">    -1</i>
   <i type="int" name="NBANDSV">    -1</i>
   <i type="int" name="NELM">     1</i>
   <i type="int" name="NELMHF">     1</i>
   <i type="int" name="DIM">     3</i>
   <i type="int" name="ANTIRES">     0</i>
   <i name="OMEGAMAX">    -30.00000000</i>
   <i name="OMEGAMIN">    -30.00000000</i>
   <i name="OMEGATL">   -200.00000000</i>
   <i type="int" name="OMEGAGRID">   140</i>
   <i name="CSHIFT">     -0.10000000</i>
   <i type="logical" name="SELFENERGY"> F  </i>
   <i type="logical" name="LSPECTRAL"> F  </i>
   <i type="logical" name="LSPECTRALGW"> F  </i>
   <i type="logical" name="LSINGLES"> F  </i>
   <i type="logical" name="LFERMIGW"> F  </i>
   <i type="logical" name="ODDONLYGW"> F  </i>
   <i type="logical" name="EVENONLYGW"> F  </i>
   <i type="int" name="NKREDLFX">     1</i>
   <i type="int" name="NKREDLFY">     1</i>
   <i type="int" name="NKREDLFZ">     1</i>
   <i type="int" name="MAXMEM">  2800</i>
   <i type="int" name="TELESCOPE">     0</i>
   <i type="int" name="TAUPAR">     1</i>
   <i type="int" name="OMEGAPAR">    -1</i>
   <i name="LAMBDA">      1.00000000</i>
  </separator>
  <separator name="External order field" >
   <i name="OFIELD_KAPPA">      0.00000000</i>
   <v name="OFIELD_K">      0.00000000      0.00000000      0.00000000</v>
   <i name="OFIELD_Q6_NEAR">      0.00000000</i>
   <i name="OFIELD_Q6_FAR">      0.00000000</i>
   <i name="OFIELD_A">      0.00000000</i>
  </separator>
 </parameters>
 <atominfo>
  <atoms>      97 </atoms>
  <types>       3 </types>
  <array name="atoms" >
   <dimension dim="1">ion</dimension>
   <field type="string">element</field>
   <field type="int">atomtype</field>
   <set>
    <rc><c>B </c><c>   1</c></rc>
    <rc><c>B </c><c>   1</c></rc>
    <rc><c>B </c><c>   1</c></rc>
    <rc><c>B </c><c>   1</c></rc>
    <rc><c>B </c><c>   1</c></rc>
    <rc><c>B </c><c>   1</c></rc>
    <rc><c>B </c><c>   1</c></rc>
    <rc><c>B </c><c>   1</c></rc>
    <rc><c>B </c><c>   1</c></rc>
    <rc><c>B </c><c>   1</c></rc>
    <rc><c>B </c><c>   1</c></rc>
    <rc><c>B </c><c>   1</c></rc>
    <rc><c>B </c><c>   1</c></rc>
    <rc><c>B </c><c>   1</c></rc>
    <rc><c>B </c><c>   1</c></rc>
    <rc><c>B </c><c>   1</c></rc>
    <rc><c>B </c><c>   1</c></rc>
    <rc><c>B </c><c>   1</c></rc>
    <rc><c>B </c><c>   1</c></rc>
    <rc><c>B </c><c>   1</c></rc>
    <rc><c>B </c><c>   1</c></rc>
    <rc><c>B </c><c>   1</c></rc>
    <rc><c>B </c><c>   1</c></rc>
    <rc><c>B </c><c>   1</c></rc>
    <rc><c>B </c><c>   1</c></rc>
    <rc><c>B </c><c>   1</c></rc>
    <rc><c>B </c><c>   1</c></rc>
    <rc><c>B </c><c>   1</c></rc>
    <rc><c>B </c><c>   1</c></rc>
    <rc><c>B </c><c>   1</c></rc>
    <rc><c>B </c><c>   1</c></rc>
    <rc><c>B </c><c>   1</c></rc>
    <rc><c>B </c><c>   1</c></rc>
    <rc><c>B </c><c>   1</c></rc>
    <rc><c>B </c><c>   1</c></rc>
    <rc><c>B </c><c>   1</c></rc>
    <rc><c>B </c><c>   1</c></rc>
    <rc><c>B </c><c>   1</c></rc>
    <rc><c>B </c><c>   1</c></rc>
    <rc><c>B </c><c>   1</c></rc>
    <rc><c>B </c><c>   1</c></rc>
    <rc><c>B </c><c>   1</c></rc>
    <rc><c>B </c><c>   1</c></rc>
    <rc><c>B </c><c>   1</c></rc>
    <rc><c>B </c><c>   1</c></rc>
    <rc><c>B </c><c>   1</c></rc>
    <rc><c>B </c><c>   1</c></rc>
    <rc><c>B </c><c>   1</c></rc>
    <rc><c>N </c><c>   2</c></rc>
    <rc><c>N </c><c>   2</c></rc>
    <rc><c>N </c><c>   2</c></rc>
    <rc><c>N </c><c>   2</c></rc>
    <rc><c>N </c><c>   2</c></rc>
    <rc><c>N </c><c>   2</c></rc>
    <rc><c>N </c><c>   2</c></rc>
    <rc><c>N </c><c>   2</c></rc>
    <rc><c>N </c><c>   2</c></rc>
    <rc><c>N </c><c>   2</c></rc>
    <rc><c>N </c><c>   2</c></rc>
    <rc><c>N </c><c>   2</c></rc>
    <rc><c>N </c><c>   2</c></rc>
    <rc><c>N </c><c>   2</c></rc>
    <rc><c>N </c><c>   2</c></rc>
    <rc><c>N </c><c>   2</c></rc>
    <rc><c>N </c><c>   2</c></rc>
    <rc><c>N </c><c>   2</c></rc>
    <rc><c>N </c><c>   2</c></rc>
    <rc><c>N </c><c>   2</c></rc>
    <rc><c>N </c><c>   2</c></rc>
    <rc><c>N </c><c>   2</c></rc>
    <rc><c>N </c><c>   2</c></rc>
    <rc><c>N </c><c>   2</c></rc>
    <rc><c>N </c><c>   2</c></rc>
    <rc><c>N </c><c>   2</c></rc>
    <rc><c>N </c><c>   2</c></rc>
    <rc><c>N </c><c>   2</c></rc>
    <rc><c>N </c><c>   2</c></rc>
    <rc><c>N </c><c>   2</c></rc>
    <rc><c>N </c><c>   2</c></rc>
    <rc><c>N </c><c>   2</c></rc>
    <rc><c>N </c><c>   2</c></rc>
    <rc><c>N </c><c>   2</c></rc>
    <rc><c>N </c><c>   2</c></rc>
    <rc><c>N </c><c>   2</c></rc>
    <rc><c>N </c><c>   2</c></rc>
    <rc><c>N </c><c>   2</c></rc>
    <rc><c>N </c><c>   2</c></rc>
    <rc><c>N </c><c>   2</c></rc>
    <rc><c>N </c><c>   2</c></rc>
    <rc><c>N </c><c>   2</c></rc>
    <rc><c>N </c><c>   2</c></rc>
    <rc><c>N </c><c>   2</c></rc>
    <rc><c>N </c><c>   2</c></rc>
    <rc><c>N </c><c>   2</c></rc>
    <rc><c>N </c><c>   2</c></rc>
    <rc><c>N </c><c>   2</c></rc>
    <rc><c>C </c><c>   3</c></rc>
   </set>
  </array>
  <array name="atomtypes" >
   <dimension dim="1">type</dimension>
   <field type="int">atomspertype</field>
   <field type="string">element</field>
   <field>mass</field>
   <field>valence</field>
   <field type="string">pseudopotential</field>
   <set>
    <rc><c>  48</c><c>B </c><c>     10.81100000</c><c>      3.00000000</c><c>  PAW_PBE B 06Sep2000                   </c></rc>
    <rc><c>  48</c><c>N </c><c>     14.00100000</c><c>      5.00000000</c><c>  PAW_PBE N 08Apr2002                   </c></rc>
    <rc><c>   1</c><c>C </c><c>     12.01100000</c><c>      4.00000000</c><c>  PAW_PBE C 08Apr2002                   </c></rc>
   </set>
  </array>
 </atominfo>
 <structure name="initialpos" >
  <crystal>
   <varray name="basis" >
    <v>      17.59966831       0.00000000       0.00000000 </v>
    <v>      -8.79983416      15.24175986       0.00000000 </v>
    <v>       0.00000000       0.00000000      19.92151445 </v>
   </varray>
   <i name="volume">   5343.94461817 </i>
   <varray name="rec_basis" >
    <v>       0.05681925       0.03280461       0.00000000 </v>
    <v>       0.00000000       0.06560922       0.00000000 </v>
    <v>       0.00000000       0.00000000       0.05019699 </v>
   </varray>
  </crystal>
  <varray name="positions" >
   <v>       0.99943010       0.00005992       0.50000000 </v>
   <v>       0.14164706       0.99871895       0.50000000 </v>
   <v>       0.28492260       0.99841663       0.50000000 </v>
   <v>       0.42850047       0.99871895       0.50000000 </v>
   <v>       0.57205839       0.00005992       0.50000000 </v>
   <v>       0.71530655       0.00214292       0.50000000 </v>
   <v>       0.85826494       0.00214292       0.50000000 </v>
   <v>       0.00080792       0.14408264       0.50000000 </v>
   <v>       0.14259355       0.14244783       0.50000000 </v>
   <v>       0.28470221       0.14112972       0.50000000 </v>
   <v>       0.42785608       0.14112972       0.50000000 </v>
   <v>       0.57128286       0.14244783       0.50000000 </v>
   <v>       0.71470329       0.14408264       0.50000000 </v>
   <v>       0.85805263       0.14467669       0.50000000 </v>
   <v>       0.00095476       0.28713011       0.50000000 </v>
   <v>       0.14372552       0.28645370       0.50000000 </v>
   <v>       0.28540977       0.28469374       0.50000000 </v>
   <v>       0.42724431       0.28306005       0.50000000 </v>
   <v>       0.57071254       0.28469374       0.50000000 </v>
   <v>       0.71415674       0.28645370       0.50000000 </v>
   <v>       0.85760392       0.28713011       0.50000000 </v>
   <v>       0.00054479       0.42966101       0.50000000 </v>
   <v>       0.14422690       0.42957551       0.50000000 </v>
   <v>       0.28730213       0.42918005       0.50000000 </v>
   <v>       0.42797654       0.42569726       0.50000000 </v>
   <v>       0.56914930       0.42569726       0.50000000 </v>
   <v>       0.71330650       0.42918005       0.50000000 </v>
   <v>       0.85677719       0.42957551       0.50000000 </v>
   <v>       0.99928255       0.57181462       0.50000000 </v>
   <v>       0.14396064       0.57181462       0.50000000 </v>
   <v>       0.28862787       0.57181625       0.50000000 </v>
   <v>       0.43313209       0.57215564       0.50000000 </v>
   <v>       0.71045212       0.57215564       0.50000000 </v>
   <v>       0.85461695       0.57181625       0.50000000 </v>
   <v>       0.99707234       0.71370518       0.50000000 </v>
   <v>       0.14255519       0.71368182       0.50000000 </v>
   <v>       0.28806142       0.71370518       0.50000000 </v>
   <v>       0.43464191       0.71382540       0.50000000 </v>
   <v>       0.58510826       0.71626937       0.50000000 </v>
   <v>       0.70258968       0.71626937       0.50000000 </v>
   <v>       0.85061206       0.71382540       0.50000000 </v>
   <v>       0.99777175       0.85613493       0.50000000 </v>
   <v>       0.14160898       0.85591288       0.50000000 </v>
   <v>       0.28573247       0.85591288       0.50000000 </v>
   <v>       0.42979175       0.85613493       0.50000000 </v>
   <v>       0.57342541       0.85758690       0.50000000 </v>
   <v>       0.71640633       0.86138410       0.50000000 </v>
   <v>       0.85559006       0.85758690       0.50000000 </v>
   <v>       0.04754270       0.09547788       0.50000000 </v>
   <v>       0.18957833       0.09405657       0.50000000 </v>
   <v>       0.33254182       0.09403125       0.50037619 </v>
   <v>       0.47590681       0.09405657       0.50000000 </v>
   <v>       0.61936376       0.09547788       0.50000000 </v>
   <v>       0.76280004       0.09719274       0.50000000 </v>
   <v>       0.90582126       0.09719274       0.50000000 </v>
   <v>       0.04854983       0.23934281       0.50000000 </v>
   <v>       0.19048138       0.23782962       0.50000000 </v>
   <v>       0.33234878       0.23634667       0.50000000 </v>
   <v>       0.47542646       0.23634667       0.50000000 </v>
   <v>       0.61877681       0.23782962       0.50000000 </v>
   <v>       0.76222155       0.23934281       0.50000000 </v>
   <v>       0.90562797       0.23982737       0.50000000 </v>
   <v>       0.04871288       0.38232824       0.50000000 </v>
   <v>       0.19188940       0.38184213       0.50000000 </v>
   <v>       0.33352206       0.38013969       0.50000000 </v>
   <v>       0.47472270       0.37801683       0.50000000 </v>
   <v>       0.61804620       0.38013969       0.50000000 </v>
   <v>       0.76138130       0.38184213       0.50000000 </v>
   <v>       0.90504393       0.38232824       0.50000000 </v>
   <v>       0.04810654       0.52478452       0.50000000 </v>
   <v>       0.19263929       0.52476864       0.50000000 </v>
   <v>       0.33696521       0.52455433       0.50000000 </v>
   <v>       0.47833704       0.52146721       0.50000000 </v>
   <v>       0.61455874       0.52146721       0.50000000 </v>
   <v>       0.75901769       0.52455433       0.50000000 </v>
   <v>       0.90355792       0.52476864       0.50000000 </v>
   <v>       0.04642473       0.66685228       0.50000000 </v>
   <v>       0.19185612       0.66685228       0.50000000 </v>
   <v>       0.33777931       0.66688794       0.50000000 </v>
   <v>       0.48615700       0.66710760       0.50000000 </v>
   <v>       0.75237918       0.66710760       0.50000000 </v>
   <v>       0.90053720       0.66688794       0.50000000 </v>
   <v>       0.04582562       0.80879365       0.50000000 </v>
   <v>       0.19009580       0.80876303       0.50000000 </v>
   <v>       0.33439660       0.80879365       0.50000000 </v>
   <v>       0.47844872       0.80897069       0.50000000 </v>
   <v>       0.62209487       0.81129474       0.50000000 </v>
   <v>       0.76062845       0.81129474       0.50000000 </v>
   <v>       0.90195054       0.80897069       0.50000000 </v>
   <v>       0.04629157       0.95154386       0.50000000 </v>
   <v>       0.18948291       0.95113037       0.50000000 </v>
   <v>       0.33307603       0.95113037       0.50000000 </v>
   <v>       0.47668087       0.95154386       0.50000000 </v>
   <v>       0.62015751       0.95313740       0.50000000 </v>
   <v>       0.76355772       0.95568687       0.50000000 </v>
   <v>       0.90440847       0.95313740       0.50000000 </v>
   <v>       0.56830873       0.56518888       0.50000000 </v>
  </varray>
 </structure>
 <calculation>
  <scstep>
   <time name="dav">    2.35    2.37</time>
   <time name="total">    2.72    2.81</time>
   <energy>
    <i name="alphaZ">    156.50993408 </i>
    <i name="ewald">  58206.77522694 </i>
    <i name="hartreedc"> -70374.20221560 </i>
    <i name="XCdc">   1302.10863296 </i>
    <i name="pawpsdc">  12033.28670802 </i>
    <i name="pawaedc"> -12049.96799276 </i>
    <i name="eentropy">     -0.00000000 </i>
    <i name="bandstr">   -904.55628251 </i>
    <i name="atom">  16260.93880140 </i>
    <i name="e_fr_energy">   4630.89281252 </i>
    <i name="e_wo_entrp">   4630.89281252 </i>
    <i name="e_0_energy">   4630.89281252 </i>
   </energy>
  </scstep>
  <scstep>
   <time name="dav">    2.99    3.03</time>
   <time name="total">    2.99    3.03</time>
   <energy>
    <i name="e_fr_energy">    216.64012418 </i>
    <i name="e_wo_entrp">    216.64012418 </i>
    <i name="e_0_energy">    216.64012418 </i>
   </energy>
  </scstep>
  <scstep>
   <time name="dav">    2.49    2.51</time>
   <time name="total">    2.49    2.51</time>
   <energy>
    <i name="e_fr_energy">   -867.49104489 </i>
    <i name="e_wo_entrp">   -867.49104489 </i>
    <i name="e_0_energy">   -867.49104489 </i>
   </energy>
  </scstep>
  <scstep>
   <time name="dav">    2.47    2.50</time>
   <time name="total">    2.47    2.50</time>
   <energy>
    <i name="e_fr_energy">   -934.19429967 </i>
    <i name="e_wo_entrp">   -934.19429967 </i>
    <i name="e_0_energy">   -934.19429967 </i>
   </energy>
  </scstep>
  <scstep>
   <time name="dav">    2.50    2.53</time>
   <time name="total">    2.75    2.78</time>
   <energy>
    <i name="e_fr_energy">   -935.77572961 </i>
    <i name="e_wo_entrp">   -935.77572961 </i>
    <i name="e_0_energy">   -935.77572961 </i>
   </energy>
  </scstep>
  <scstep>
   <time name="dav">    2.33    2.35</time>
   <time name="total">    2.93    2.96</time>
   <energy>
    <i name="e_fr_energy">   -858.73714029 </i>
    <i name="e_wo_entrp">   -858.73714029 </i>
    <i name="e_0_energy">   -858.73714029 </i>
   </energy>
  </scstep>
  <scstep>
   <time name="dav">    2.36    2.38</time>
   <time name="total">    2.98    3.00</time>
   <energy>
    <i name="e_fr_energy">   -850.19458617 </i>
    <i name="e_wo_entrp">   -850.19458617 </i>
    <i name="e_0_energy">   -850.19458617 </i>
   </energy>
  </scstep>
  <scstep>
   <time name="dav">    2.28    2.30</time>
   <time name="total">    2.89    2.92</time>
   <energy>
    <i name="e_fr_energy">   -845.92692174 </i>
    <i name="e_wo_entrp">   -845.92692074 </i>
    <i name="e_0_energy">   -845.92692124 </i>
   </energy>
  </scstep>
  <scstep>
   <time name="dav">    2.30    2.32</time>
   <time name="total">    2.91    2.94</time>
   <energy>
    <i name="e_fr_energy">   -845.80178729 </i>
    <i name="e_wo_entrp">   -845.80178729 </i>
    <i name="e_0_energy">   -845.80178729 </i>
   </energy>
  </scstep>
  <scstep>
   <time name="dav">    2.38    2.41</time>
   <time name="total">    2.99    3.03</time>
   <energy>
    <i name="e_fr_energy">   -845.64050092 </i>
    <i name="e_wo_entrp">   -845.64050092 </i>
    <i name="e_0_energy">   -845.64050092 </i>
   </energy>
  </scstep>
  <scstep>
   <time name="dav">    2.25    2.27</time>
   <time name="total">    2.85    2.89</time>
   <energy>
    <i name="e_fr_energy">   -845.59042498 </i>
    <i name="e_wo_entrp">   -845.59042498 </i>
    <i name="e_0_energy">   -845.59042498 </i>
   </energy>
  </scstep>
  <scstep>
   <time name="dav">    2.27    2.29</time>
   <time name="total">    2.88    2.91</time>
   <energy>
    <i name="e_fr_energy">   -845.57764790 </i>
    <i name="e_wo_entrp">   -845.57764790 </i>
    <i name="e_0_energy">   -845.57764790 </i>
   </energy>
  </scstep>
  <scstep>
   <time name="dav">    2.22    2.24</time>
   <time name="total">    2.83    2.87</time>
   <energy>
    <i name="e_fr_energy">   -845.57688936 </i>
    <i name="e_wo_entrp">   -845.57688936 </i>
    <i name="e_0_energy">   -845.57688936 </i>
   </energy>
  </scstep>
  <scstep>
   <time name="dav">    2.23    2.25</time>
   <time name="total">    2.84    2.88</time>
   <energy>
    <i name="e_fr_energy">   -845.58251961 </i>
    <i name="e_wo_entrp">   -845.58251961 </i>
    <i name="e_0_energy">   -845.58251961 </i>
   </energy>
  </scstep>
  <scstep>
   <time name="dav">    2.23    2.24</time>
   <time name="total">    2.83    2.86</time>
   <energy>
    <i name="e_fr_energy">   -845.60559569 </i>
    <i name="e_wo_entrp">   -845.60559569 </i>
    <i name="e_0_energy">   -845.60559569 </i>
   </energy>
  </scstep>
  <scstep>
   <time name="dav">    2.17    2.19</time>
   <time name="total">    2.77    2.81</time>
   <energy>
    <i name="e_fr_energy">   -845.63137501 </i>
    <i name="e_wo_entrp">   -845.63137501 </i>
    <i name="e_0_energy">   -845.63137501 </i>
   </energy>
  </scstep>
  <scstep>
   <time name="dav">    2.25    2.27</time>
   <time name="total">    2.86    2.90</time>
   <energy>
    <i name="e_fr_energy">   -845.64514469 </i>
    <i name="e_wo_entrp">   -845.64514469 </i>
    <i name="e_0_energy">   -845.64514469 </i>
   </energy>
  </scstep>
  <scstep>
   <time name="dav">    2.23    2.25</time>
   <time name="total">    2.84    2.87</time>
   <energy>
    <i name="e_fr_energy">   -845.65074656 </i>
    <i name="e_wo_entrp">   -845.65074656 </i>
    <i name="e_0_energy">   -845.65074656 </i>
   </energy>
  </scstep>
  <scstep>
   <time name="dav">    2.23    2.25</time>
   <time name="total">    2.84    2.87</time>
   <energy>
    <i name="e_fr_energy">   -845.65285098 </i>
    <i name="e_wo_entrp">   -845.65285098 </i>
    <i name="e_0_energy">   -845.65285098 </i>
   </energy>
  </scstep>
  <scstep>
   <time name="dav">    2.25    2.27</time>
   <time name="total">    2.86    2.90</time>
   <energy>
    <i name="e_fr_energy">   -845.65362371 </i>
    <i name="e_wo_entrp">   -845.65362371 </i>
    <i name="e_0_energy">   -845.65362371 </i>
   </energy>
  </scstep>
  <scstep>
   <time name="dav">    2.26    2.28</time>
   <time name="total">    2.88    2.90</time>
   <energy>
    <i name="e_fr_energy">   -845.65391728 </i>
    <i name="e_wo_entrp">   -845.65391728 </i>
    <i name="e_0_energy">   -845.65391728 </i>
   </energy>
  </scstep>
  <scstep>
   <time name="dav">    2.15    2.17</time>
   <time name="total">    2.76    2.79</time>
   <energy>
    <i name="e_fr_energy">   -845.65410098 </i>
    <i name="e_wo_entrp">   -845.65410098 </i>
    <i name="e_0_energy">   -845.65410098 </i>
   </energy>
  </scstep>
  <scstep>
   <time name="dav">    2.24    2.26</time>
   <time name="total">    2.85    2.88</time>
   <energy>
    <i name="e_fr_energy">   -845.65421481 </i>
    <i name="e_wo_entrp">   -845.65421481 </i>
    <i name="e_0_energy">   -845.65421481 </i>
   </energy>
  </scstep>
  <scstep>
   <time name="dav">    2.25    2.27</time>
   <time name="total">    2.87    2.90</time>
   <energy>
    <i name="e_fr_energy">   -845.65428588 </i>
    <i name="e_wo_entrp">   -845.65428588 </i>
    <i name="e_0_energy">   -845.65428588 </i>
   </energy>
  </scstep>
  <scstep>
   <time name="dav">    2.25    2.27</time>
   <time name="total">    2.87    2.89</time>
   <energy>
    <i name="e_fr_energy">   -845.65431782 </i>
    <i name="e_wo_entrp">   -845.65431782 </i>
    <i name="e_0_energy">   -845.65431782 </i>
   </energy>
  </scstep>
  <scstep>
   <time name="dav">    2.21    2.22</time>
   <time name="total">    2.83    2.86</time>
   <energy>
    <i name="e_fr_energy">   -845.65433561 </i>
    <i name="e_wo_entrp">   -845.65433561 </i>
    <i name="e_0_energy">   -845.65433561 </i>
   </energy>
  </scstep>
  <scstep>
   <time name="dav">    2.28    2.30</time>
   <time name="total">    2.90    2.93</time>
   <energy>
    <i name="e_fr_energy">   -845.65434150 </i>
    <i name="e_wo_entrp">   -845.65434150 </i>
    <i name="e_0_energy">   -845.65434150 </i>
   </energy>
  </scstep>
  <scstep>
   <time name="dav">    1.96    1.97</time>
   <time name="total">    2.58    2.61</time>
   <energy>
    <i name="e_fr_energy">   -845.65434363 </i>
    <i name="e_wo_entrp">   -845.65434363 </i>
    <i name="e_0_energy">   -845.65434363 </i>
   </energy>
  </scstep>
  <scstep>
   <time name="dav">    1.96    1.97</time>
   <time name="total">    2.57    2.61</time>
   <energy>
    <i name="e_fr_energy">   -845.65434456 </i>
    <i name="e_wo_entrp">   -845.65434456 </i>
    <i name="e_0_energy">   -845.65434456 </i>
   </energy>
  </scstep>
  <scstep>
   <time name="dav">    1.66    1.68</time>
   <time name="total">    2.29    2.31</time>
   <energy>
    <i name="e_fr_energy">   -845.65434472 </i>
    <i name="e_wo_entrp">   -845.65434472 </i>
    <i name="e_0_energy">   -845.65434472 </i>
   </energy>
  </scstep>
  <scstep>
   <time name="dav">    1.67    1.68</time>
   <time name="total">    2.30    2.33</time>
   <energy>
    <i name="e_fr_energy">   -845.65434479 </i>
    <i name="e_wo_entrp">   -845.65434479 </i>
    <i name="e_0_energy">   -845.65434479 </i>
   </energy>
  </scstep>
  <scstep>
   <time name="dav">    1.75    1.76</time>
   <time name="total">    2.37    2.40</time>
   <energy>
    <i name="e_fr_energy">   -845.65434481 </i>
    <i name="e_wo_entrp">   -845.65434481 </i>
    <i name="e_0_energy">   -845.65434481 </i>
   </energy>
  </scstep>
  <scstep>
   <time name="dav">    1.74    1.75</time>
   <time name="total">    2.11    2.14</time>
   <energy>
    <i name="alphaZ">    156.50993408 </i>
    <i name="ewald">  58206.77522694 </i>
    <i name="hartreedc"> -72314.28210004 </i>
    <i name="XCdc">   1369.72370440 </i>
    <i name="pawpsdc">  44018.71183542 </i>
    <i name="pawaedc"> -44054.05365188 </i>
    <i name="eentropy">     -0.00000000 </i>
    <i name="bandstr">  -4489.97809514 </i>
    <i name="atom">  16260.93880140 </i>
    <i name="e_fr_energy">   -845.65434482 </i>
    <i name="e_wo_entrp">   -845.65434482 </i>
    <i name="e_0_energy">   -845.65434482 </i>
   </energy>
  </scstep>
  <structure>
   <crystal>
    <varray name="basis" >
     <v>      17.59966831       0.00000000       0.00000000 </v>
     <v>      -8.79983416      15.24175986       0.00000000 </v>
     <v>       0.00000000       0.00000000      19.92151445 </v>
    </varray>
    <i name="volume">   5343.94461817 </i>
    <varray name="rec_basis" >
     <v>       0.05681925       0.03280461       0.00000000 </v>
     <v>       0.00000000       0.06560922       0.00000000 </v>
     <v>       0.00000000       0.00000000       0.05019699 </v>
    </varray>
   </crystal>
   <varray name="positions" >
    <v>       0.99943010       0.00005992       0.50000000 </v>
    <v>       0.14164706       0.99871895       0.50000000 </v>
    <v>       0.28492260       0.99841663       0.50000000 </v>
    <v>       0.42850047       0.99871895       0.50000000 </v>
    <v>       0.57205839       0.00005992       0.50000000 </v>
    <v>       0.71530655       0.00214292       0.50000000 </v>
    <v>       0.85826494       0.00214292       0.50000000 </v>
    <v>       0.00080792       0.14408264       0.50000000 </v>
    <v>       0.14259355       0.14244783       0.50000000 </v>
    <v>       0.28470221       0.14112972       0.50000000 </v>
    <v>       0.42785608       0.14112972       0.50000000 </v>
    <v>       0.57128286       0.14244783       0.50000000 </v>
    <v>       0.71470329       0.14408264       0.50000000 </v>
    <v>       0.85805263       0.14467669       0.50000000 </v>
    <v>       0.00095476       0.28713011       0.50000000 </v>
    <v>       0.14372552       0.28645370       0.50000000 </v>
    <v>       0.28540977       0.28469374       0.50000000 </v>
    <v>       0.42724431       0.28306005       0.50000000 </v>
    <v>       0.57071254       0.28469374       0.50000000 </v>
    <v>       0.71415674       0.28645370       0.50000000 </v>
    <v>       0.85760392       0.28713011       0.50000000 </v>
    <v>       0.00054479       0.42966101       0.50000000 </v>
    <v>       0.14422690       0.42957551       0.50000000 </v>
    <v>       0.28730213       0.42918005       0.50000000 </v>
    <v>       0.42797654       0.42569726       0.50000000 </v>
    <v>       0.56914930       0.42569726       0.50000000 </v>
    <v>       0.71330650       0.42918005       0.50000000 </v>
    <v>       0.85677719       0.42957551       0.50000000 </v>
    <v>       0.99928255       0.57181462       0.50000000 </v>
    <v>       0.14396064       0.57181462       0.50000000 </v>
    <v>       0.28862787       0.57181625       0.50000000 </v>
    <v>       0.43313209       0.57215564       0.50000000 </v>
    <v>       0.71045212       0.57215564       0.50000000 </v>
    <v>       0.85461695       0.57181625       0.50000000 </v>
    <v>       0.99707234       0.71370518       0.50000000 </v>
    <v>       0.14255519       0.71368182       0.50000000 </v>
    <v>       0.28806142       0.71370518       0.50000000 </v>
    <v>       0.43464191       0.71382540       0.50000000 </v>
    <v>       0.58510826       0.71626937       0.50000000 </v>
    <v>       0.70258968       0.71626937       0.50000000 </v>
    <v>       0.85061206       0.71382540       0.50000000 </v>
    <v>       0.99777175       0.85613493       0.50000000 </v>
    <v>       0.14160898       0.85591288       0.50000000 </v>
    <v>       0.28573247       0.85591288       0.50000000 </v>
    <v>       0.42979175       0.85613493       0.50000000 </v>
    <v>       0.57342541       0.85758690       0.50000000 </v>
    <v>       0.71640633       0.86138410       0.50000000 </v>
    <v>       0.85559006       0.85758690       0.50000000 </v>
    <v>       0.04754270       0.09547788       0.50000000 </v>
    <v>       0.18957833       0.09405657       0.50000000 </v>
    <v>       0.33254182       0.09403125       0.50037619 </v>
    <v>       0.47590681       0.09405657       0.50000000 </v>
    <v>       0.61936376       0.09547788       0.50000000 </v>
    <v>       0.76280004       0.09719274       0.50000000 </v>
    <v>       0.90582126       0.09719274       0.50000000 </v>
    <v>       0.04854983       0.23934281       0.50000000 </v>
    <v>       0.19048138       0.23782962       0.50000000 </v>
    <v>       0.33234878       0.23634667       0.50000000 </v>
    <v>       0.47542646       0.23634667       0.50000000 </v>
    <v>       0.61877681       0.23782962       0.50000000 </v>
    <v>       0.76222155       0.23934281       0.50000000 </v>
    <v>       0.90562797       0.23982737       0.50000000 </v>
    <v>       0.04871288       0.38232824       0.50000000 </v>
    <v>       0.19188940       0.38184213       0.50000000 </v>
    <v>       0.33352206       0.38013969       0.50000000 </v>
    <v>       0.47472270       0.37801683       0.50000000 </v>
    <v>       0.61804620       0.38013969       0.50000000 </v>
    <v>       0.76138130       0.38184213       0.50000000 </v>
    <v>       0.90504393       0.38232824       0.50000000 </v>
    <v>       0.04810654       0.52478452       0.50000000 </v>
    <v>       0.19263929       0.52476864       0.50000000 </v>
    <v>       0.33696521       0.52455433       0.50000000 </v>
    <v>       0.47833704       0.52146721       0.50000000 </v>
    <v>       0.61455874       0.52146721       0.50000000 </v>
    <v>       0.75901769       0.52455433       0.50000000 </v>
    <v>       0.90355792       0.52476864       0.50000000 </v>
    <v>       0.04642473       0.66685228       0.50000000 </v>
    <v>       0.19185612       0.66685228       0.50000000 </v>
    <v>       0.33777931       0.66688794       0.50000000 </v>
    <v>       0.48615700       0.66710760       0.50000000 </v>
    <v>       0.75237918       0.66710760       0.50000000 </v>
    <v>       0.90053720       0.66688794       0.50000000 </v>
    <v>       0.04582562       0.80879365       0.50000000 </v>
    <v>       0.19009580       0.80876303       0.50000000 </v>
    <v>       0.33439660       0.80879365       0.50000000 </v>
    <v>       0.47844872       0.80897069       0.50000000 </v>
    <v>       0.62209487       0.81129474       0.50000000 </v>
    <v>       0.76062845       0.81129474       0.50000000 </v>
    <v>       0.90195054       0.80897069       0.50000000 </v>
    <v>       0.04629157       0.95154386       0.50000000 </v>
    <v>       0.18948291       0.95113037       0.50000000 </v>
    <v>       0.33307603       0.95113037       0.50000000 </v>
    <v>       0.47668087       0.95154386       0.50000000 </v>
    <v>       0.62015751       0.95313740       0.50000000 </v>
    <v>       0.76355772       0.95568687       0.50000000 </v>
    <v>       0.90440847       0.95313740       0.50000000 </v>
    <v>       0.56830873       0.56518888       0.50000000 </v>
   </varray>
  </structure>
  <varray name="forces" >
   <v>      -0.03970402      -0.02410119       0.00004636 </v>
   <v>      -0.02902452       0.00294914       0.00154134 </v>
   <v>      -0.02695783       0.10883322       0.03842172 </v>
   <v>       0.03062201      -0.00638022       0.00154532 </v>
   <v>       0.04225505      -0.02531839       0.00004654 </v>
   <v>      -0.03252884      -0.04925882       0.00000995 </v>
   <v>       0.03428415      -0.04911753       0.00000996 </v>
   <v>      -0.00460691      -0.02680397       0.00014707 </v>
   <v>      -0.02223169      -0.02678965      -0.00210249 </v>
   <v>      -0.10229332       0.05175372       0.03741778 </v>
   <v>      -0.02009884       0.01261520       0.03800153 </v>
   <v>       0.02866538      -0.02018272      -0.00209515 </v>
   <v>       0.00721718      -0.02578268       0.00014657 </v>
   <v>       0.00098548      -0.04124445       0.00000530 </v>
   <v>      -0.00732584      -0.02991737      -0.00000129 </v>
   <v>       0.00814868      -0.04593357       0.00018697 </v>
   <v>      -0.02181859      -0.00497170      -0.00207011 </v>
   <v>      -0.00730829      -0.09954345       0.00155010 </v>
   <v>       0.02520671      -0.00143398      -0.00207307 </v>
   <v>      -0.00545793      -0.04415749       0.00018712 </v>
   <v>       0.00914468      -0.02942304      -0.00000129 </v>
   <v>       0.00051907       0.00630948       0.00001731 </v>
   <v>      -0.02410577      -0.00236993      -0.00000031 </v>
   <v>       0.05945402      -0.14027440       0.00014010 </v>
   <v>      -0.11179832      -0.20254540       0.00002665 </v>
   <v>       0.10969761      -0.20152888       0.00002671 </v>
   <v>      -0.05904207      -0.13903063       0.00014049 </v>
   <v>       0.02513377      -0.00158604      -0.00000033 </v>
   <v>       0.01677858       0.02760006       0.00000078 </v>
   <v>      -0.01644662       0.02710953       0.00000085 </v>
   <v>      -0.08473773       0.12646513       0.00000348 </v>
   <v>       0.05108903       0.39504177       0.00001290 </v>
   <v>      -0.05144901       0.39575686       0.00001283 </v>
   <v>       0.08491614       0.12744855       0.00000345 </v>
   <v>      -0.00925490       0.02134492       0.00014312 </v>
   <v>      -0.00014565       0.02457328       0.00017697 </v>
   <v>       0.00887895       0.01965365       0.00014221 </v>
   <v>       0.08749088       0.04166536       0.00001067 </v>
   <v>       1.36453697       1.24993597      -0.00001611 </v>
   <v>      -1.36445772       1.25024742      -0.00001613 </v>
   <v>      -0.08729455       0.04286766       0.00001065 </v>
   <v>      -0.04857972      -0.00641474       0.00004842 </v>
   <v>      -0.01408959      -0.00905541      -0.00209407 </v>
   <v>       0.01030539      -0.01311549      -0.00208377 </v>
   <v>       0.04895897      -0.00930586       0.00004841 </v>
   <v>       0.15216858       0.03597463       0.00001735 </v>
   <v>       0.00043435      -0.25244755       0.00001244 </v>
   <v>      -0.15120253       0.03693024       0.00001735 </v>
   <v>       0.02425300       0.03055004       0.00029561 </v>
   <v>      -0.00334431       0.01291804      -0.00794353 </v>
   <v>       0.18063447      -0.28021579      -0.06341158 </v>
   <v>      -0.02751045       0.01093326      -0.00783738 </v>
   <v>      -0.02893400       0.03042302       0.00029207 </v>
   <v>      -0.01370289       0.02661775      -0.00003281 </v>
   <v>       0.01140980       0.02662623      -0.00003302 </v>
   <v>       0.01448078       0.03557367      -0.00006432 </v>
   <v>      -0.01300968       0.00426636       0.00042251 </v>
   <v>      -0.00153615       0.06201762      -0.00804195 </v>
   <v>       0.00363677       0.04467097      -0.00800880 </v>
   <v>       0.01016196       0.00079902       0.00042239 </v>
   <v>      -0.01650731       0.03480801      -0.00006443 </v>
   <v>      -0.00085678       0.03110185      -0.00000376 </v>
   <v>       0.01028088       0.02695855      -0.00000802 </v>
   <v>       0.04635007       0.06099628      -0.00006130 </v>
   <v>      -0.02413823      -0.19585191       0.00029799 </v>
   <v>       0.00153719       0.11436633       0.00045648 </v>
   <v>       0.02450183      -0.19861795       0.00029827 </v>
   <v>      -0.04721132       0.05937952      -0.00006130 </v>
   <v>      -0.01123945       0.02651504      -0.00000819 </v>
   <v>      -0.00011846       0.01011588      -0.00000834 </v>
   <v>       0.02497063      -0.00565002      -0.00000480 </v>
   <v>       0.18922775       0.11454796      -0.00003190 </v>
   <v>       1.02286341      -1.56189479      -0.00010597 </v>
   <v>      -1.02221461      -1.56255682      -0.00010601 </v>
   <v>      -0.18932831       0.11332723      -0.00003204 </v>
   <v>      -0.02526989      -0.00643993      -0.00000481 </v>
   <v>       0.01068727      -0.03157597      -0.00006126 </v>
   <v>      -0.01011056      -0.03097770      -0.00006189 </v>
   <v>      -0.05995908      -0.06458660      -0.00003125 </v>
   <v>      -0.27110577       0.01058850      -0.00000423 </v>
   <v>       0.27083573       0.00988157      -0.00000439 </v>
   <v>       0.05983978      -0.06577494      -0.00003149 </v>
   <v>       0.03888552      -0.01188568       0.00029808 </v>
   <v>       0.00158640      -0.00705216       0.00041808 </v>
   <v>      -0.03859816      -0.00891801       0.00029443 </v>
   <v>      -0.08710050      -0.01214935      -0.00006433 </v>
   <v>      -0.88716803       0.24452378      -0.00000037 </v>
   <v>       0.88609467       0.24400389      -0.00000003 </v>
   <v>       0.08606759      -0.01357029      -0.00006495 </v>
   <v>       0.03320128       0.01435532       0.00041946 </v>
   <v>       0.02588212       0.00319206      -0.00795857 </v>
   <v>      -0.02392733       0.02425222      -0.00788393 </v>
   <v>      -0.03612455       0.01782364       0.00041579 </v>
   <v>      -0.11235331       0.11918281      -0.00006051 </v>
   <v>      -0.00087047       0.01607544      -0.00000528 </v>
   <v>       0.11025991       0.11823542      -0.00006074 </v>
   <v>      -0.00034005      -0.11895062       0.00011367 </v>
  </varray>
  <varray name="stress" >
   <v>     -10.58418005      -0.01196580       0.00040693 </v>
   <v>      -0.01196580       3.01458189      -0.00062861 </v>
   <v>       0.00040692      -0.00062861      -0.42570295 </v>
  </varray>
  <energy>
   <i name="e_fr_energy">   -845.65434482 </i>
   <i name="e_wo_entrp">   -845.65434482 </i>
   <i name="e_0_energy">     -0.00000000 </i>
  </energy>
  <time name="totalsc">   98.07   99.44</time>
  <eigenvalues>
   <array>
    <dimension dim="1">band</dimension>
    <dimension dim="2">kpoint</dimension>
    <dimension dim="3">spin</dimension>
    <field>eigene</field>
    <field>occ</field>
    <set>
     <set comment="spin 1">
      <set comment="kpoint 1">
       <r>  -22.5392    1.0000 </r>
       <r>  -22.0202    1.0000 </r>
       <r>  -21.7722    1.0000 </r>
       <r>  -21.7441    1.0000 </r>
       <r>  -21.6974    1.0000 </r>
       <r>  -21.6551    1.0000 </r>
       <r>  -21.6173    1.0000 </r>
       <r>  -21.2363    1.0000 </r>
       <r>  -21.0696    1.0000 </r>
       <r>  -21.0040    1.0000 </r>
       <r>  -20.9683    1.0000 </r>
       <r>  -20.9266    1.0000 </r>
       <r>  -20.8762    1.0000 </r>
       <r>  -20.7455    1.0000 </r>
       <r>  -20.7030    1.0000 </r>
       <r>  -20.6634    1.0000 </r>
       <r>  -20.5952    1.0000 </r>
       <r>  -20.5679    1.0000 </r>
       <r>  -20.4278    1.0000 </r>
       <r>  -19.9806    1.0000 </r>
       <r>  -19.9254    1.0000 </r>
       <r>  -19.8031    1.0000 </r>
       <r>  -19.7626    1.0000 </r>
       <r>  -19.7364    1.0000 </r>
       <r>  -19.7355    1.0000 </r>
       <r>  -19.7069    1.0000 </r>
       <r>  -19.6985    1.0000 </r>
       <r>  -19.6442    1.0000 </r>
       <r>  -19.6400    1.0000 </r>
       <r>  -19.6289    1.0000 </r>
       <r>  -19.4911    1.0000 </r>
       <r>  -19.4079    1.0000 </r>
       <r>  -19.3646    1.0000 </r>
       <r>  -19.3569    1.0000 </r>
       <r>  -19.2898    1.0000 </r>
       <r>  -19.2396    1.0000 </r>
       <r>  -19.1079    1.0000 </r>
       <r>  -18.9997    1.0000 </r>
       <r>  -18.9307    1.0000 </r>
       <r>  -18.8748    1.0000 </r>
       <r>  -18.8536    1.0000 </r>
       <r>  -18.8371    1.0000 </r>
       <r>  -18.7669    1.0000 </r>
       <r>  -18.7505    1.0000 </r>
       <r>  -18.7277    1.0000 </r>
       <r>  -18.7153    1.0000 </r>
       <r>  -18.6950    1.0000 </r>
       <r>  -18.4450    1.0000 </r>
       <r>  -14.1391    1.0000 </r>
       <r>  -13.1805    1.0000 </r>
       <r>  -13.1563    1.0000 </r>
       <r>  -13.1093    1.0000 </r>
       <r>  -13.1014    1.0000 </r>
       <r>  -13.0804    1.0000 </r>
       <r>  -13.0182    1.0000 </r>
       <r>  -12.9602    1.0000 </r>
       <r>  -12.9509    1.0000 </r>
       <r>  -12.9359    1.0000 </r>
       <r>  -12.8055    1.0000 </r>
       <r>  -12.7676    1.0000 </r>
       <r>  -12.6010    1.0000 </r>
       <r>  -12.5034    1.0000 </r>
       <r>  -12.4843    1.0000 </r>
       <r>  -12.3789    1.0000 </r>
       <r>  -12.3094    1.0000 </r>
       <r>  -12.2974    1.0000 </r>
       <r>  -12.1756    1.0000 </r>
       <r>  -11.9016    1.0000 </r>
       <r>  -11.8853    1.0000 </r>
       <r>  -11.7671    1.0000 </r>
       <r>  -11.7652    1.0000 </r>
       <r>  -11.7501    1.0000 </r>
       <r>  -11.7416    1.0000 </r>
       <r>  -11.6957    1.0000 </r>
       <r>  -11.6577    1.0000 </r>
       <r>  -11.6323    1.0000 </r>
       <r>  -11.5398    1.0000 </r>
       <r>  -11.4214    1.0000 </r>
       <r>  -11.1977    1.0000 </r>
       <r>  -11.1237    1.0000 </r>
       <r>  -11.0872    1.0000 </r>
       <r>  -11.0585    1.0000 </r>
       <r>  -10.9654    1.0000 </r>
       <r>  -10.9124    1.0000 </r>
       <r>  -10.6847    1.0000 </r>
       <r>  -10.4617    1.0000 </r>
       <r>  -10.4307    1.0000 </r>
       <r>  -10.3488    1.0000 </r>
       <r>  -10.2543    1.0000 </r>
       <r>  -10.2074    1.0000 </r>
       <r>   -9.8894    1.0000 </r>
       <r>   -9.7691    1.0000 </r>
       <r>   -9.7645    1.0000 </r>
       <r>   -9.7237    1.0000 </r>
       <r>   -9.6754    1.0000 </r>
       <r>   -9.5863    1.0000 </r>
       <r>   -9.5445    1.0000 </r>
       <r>   -9.4964    1.0000 </r>
       <r>   -9.4665    1.0000 </r>
       <r>   -9.3513    1.0000 </r>
       <r>   -9.3451    1.0000 </r>
       <r>   -9.2892    1.0000 </r>
       <r>   -9.2609    1.0000 </r>
       <r>   -9.2551    1.0000 </r>
       <r>   -9.2517    1.0000 </r>
       <r>   -9.2388    1.0000 </r>
       <r>   -9.2228    1.0000 </r>
       <r>   -9.2221    1.0000 </r>
       <r>   -9.2064    1.0000 </r>
       <r>   -9.2013    1.0000 </r>
       <r>   -9.1996    1.0000 </r>
       <r>   -9.1981    1.0000 </r>
       <r>   -9.1562    1.0000 </r>
       <r>   -9.1343    1.0000 </r>
       <r>   -9.1121    1.0000 </r>
       <r>   -9.1105    1.0000 </r>
       <r>   -9.0996    1.0000 </r>
       <r>   -9.0472    1.0000 </r>
       <r>   -8.9930    1.0000 </r>
       <r>   -8.8454    1.0000 </r>
       <r>   -8.7957    1.0000 </r>
       <r>   -8.6530    1.0000 </r>
       <r>   -8.5085    1.0000 </r>
       <r>   -8.4807    1.0000 </r>
       <r>   -8.4426    1.0000 </r>
       <r>   -8.3278    1.0000 </r>
       <r>   -8.2233    1.0000 </r>
       <r>   -8.2019    1.0000 </r>
       <r>   -8.1973    1.0000 </r>
       <r>   -8.1702    1.0000 </r>
       <r>   -8.1481    1.0000 </r>
       <r>   -8.1228    1.0000 </r>
       <r>   -8.0383    1.0000 </r>
       <r>   -7.9705    1.0000 </r>
       <r>   -7.9501    1.0000 </r>
       <r>   -7.8746    1.0000 </r>
       <r>   -7.8486    1.0000 </r>
       <r>   -7.8434    1.0000 </r>
       <r>   -7.8016    1.0000 </r>
       <r>   -7.7988    1.0000 </r>
       <r>   -7.7977    1.0000 </r>
       <r>   -7.7377    1.0000 </r>
       <r>   -7.7338    1.0000 </r>
       <r>   -7.7114    1.0000 </r>
       <r>   -7.6787    1.0000 </r>
       <r>   -7.6748    1.0000 </r>
       <r>   -7.6643    1.0000 </r>
       <r>   -7.6374    1.0000 </r>
       <r>   -7.6320    1.0000 </r>
       <r>   -7.4416    1.0000 </r>
       <r>   -7.4369    1.0000 </r>
       <r>   -7.4277    1.0000 </r>
       <r>   -7.3843    1.0000 </r>
       <r>   -7.3623    1.0000 </r>
       <r>   -7.2736    1.0000 </r>
       <r>   -6.8332    1.0000 </r>
       <r>   -6.7575    1.0000 </r>
       <r>   -6.6213    1.0000 </r>
       <r>   -6.6071    1.0000 </r>
       <r>   -6.5419    1.0000 </r>
       <r>   -6.5396    1.0000 </r>
       <r>   -6.4996    1.0000 </r>
       <r>   -6.4877    1.0000 </r>
       <r>   -6.4571    1.0000 </r>
       <r>   -6.4566    1.0000 </r>
       <r>   -6.4401    1.0000 </r>
       <r>   -6.4394    1.0000 </r>
       <r>   -6.4101    1.0000 </r>
       <r>   -6.4043    1.0000 </r>
       <r>   -6.3600    1.0000 </r>
       <r>   -6.3456    1.0000 </r>
       <r>   -6.3184    1.0000 </r>
       <r>   -6.1089    1.0000 </r>
       <r>   -5.9715    1.0000 </r>
       <r>   -5.9248    1.0000 </r>
       <r>   -5.8864    1.0000 </r>
       <r>   -5.8799    1.0000 </r>
       <r>   -5.8624    1.0000 </r>
       <r>   -5.7811    1.0000 </r>
       <r>   -5.7799    1.0000 </r>
       <r>   -5.5275    1.0000 </r>
       <r>   -5.2212    1.0000 </r>
       <r>   -5.1972    1.0000 </r>
       <r>   -5.1955    1.0000 </r>
       <r>   -5.1417    1.0000 </r>
       <r>   -5.1322    1.0000 </r>
       <r>   -5.1035    1.0000 </r>
       <r>   -4.9998    1.0000 </r>
       <r>   -4.9444    1.0000 </r>
       <r>   -4.9185    1.0000 </r>
       <r>   -4.9069    1.0000 </r>
       <r>   -4.9004    1.0000 </r>
       <r>   -4.7321    1.0000 </r>
       <r>   -1.3149    1.0000 </r>
       <r>   -1.2018    0.0000 </r>
       <r>    0.0599    0.0000 </r>
       <r>    0.2050    0.0000 </r>
       <r>    0.2403    0.0000 </r>
       <r>    0.2602    0.0000 </r>
       <r>    0.2614    0.0000 </r>
       <r>    0.3023    0.0000 </r>
       <r>    0.3041    0.0000 </r>
       <r>    0.3777    0.0000 </r>
       <r>    0.3926    0.0000 </r>
       <r>    0.4348    0.0000 </r>
       <r>    0.4788    0.0000 </r>
       <r>    0.5267    0.0000 </r>
       <r>    0.6102    0.0000 </r>
       <r>    0.7469    0.0000 </r>
       <r>    0.7474    0.0000 </r>
       <r>    0.7794    0.0000 </r>
       <r>    0.8068    0.0000 </r>
       <r>    0.8128    0.0000 </r>
       <r>    0.8275    0.0000 </r>
       <r>    0.8374    0.0000 </r>
       <r>    0.8580    0.0000 </r>
       <r>    0.8712    0.0000 </r>
       <r>    0.9806    0.0000 </r>
       <r>    1.0199    0.0000 </r>
       <r>    1.0599    0.0000 </r>
       <r>    1.1183    0.0000 </r>
       <r>    1.4953    0.0000 </r>
       <r>    1.6739    0.0000 </r>
       <r>    1.6976    0.0000 </r>
       <r>    1.7064    0.0000 </r>
       <r>    1.7239    0.0000 </r>
       <r>    1.7395    0.0000 </r>
       <r>    1.7448    0.0000 </r>
       <r>    1.8050    0.0000 </r>
       <r>    1.8069    0.0000 </r>
       <r>    1.8463    0.0000 </r>
       <r>    1.8485    0.0000 </r>
       <r>    1.8787    0.0000 </r>
       <r>    1.8820    0.0000 </r>
       <r>    1.9061    0.0000 </r>
       <r>    1.9071    0.0000 </r>
       <r>    1.9293    0.0000 </r>
       <r>    1.9811    0.0000 </r>
       <r>    2.0297    0.0000 </r>
       <r>    2.1036    0.0000 </r>
       <r>    2.1172    0.0000 </r>
       <r>    2.1303    0.0000 </r>
       <r>    2.1328    0.0000 </r>
       <r>    2.1397    0.0000 </r>
      </set>
     </set>
    </set>
   </array>
  </eigenvalues>
  <separator name="orbital magnetization" >
   <v name="MAGDIPOLOUT">      0.00000000      0.00000000      0.00000000</v>
  </separator>
  <dos>
   <i name="efermi">     -1.25262847 </i>
   <total>
    <array>
     <dimension dim="1">gridpoints</dimension>
     <dimension dim="2">spin</dimension>
     <field>energy</field>
     <field>total</field>
     <field>integrated</field>
     <set>
      <set comment="spin 1">
       <r>   -23.7731     0.0000     0.0000 </r>
       <r>   -23.6826     0.0000     0.0000 </r>
       <r>   -23.5921     0.0000     0.0000 </r>
       <r>   -23.5016     0.0000     0.0000 </r>
       <r>   -23.4111     0.0000     0.0000 </r>
       <r>   -23.3207     0.0000     0.0000 </r>
       <r>   -23.2302     0.0000     0.0000 </r>
       <r>   -23.1397     0.0000     0.0000 </r>
       <r>   -23.0492     0.0000     0.0000 </r>
       <r>   -22.9587     0.0000     0.0000 </r>
       <r>   -22.8682     0.0000     0.0000 </r>
       <r>   -22.7777     0.0000     0.0000 </r>
       <r>   -22.6872     0.0000     0.0000 </r>
       <r>   -22.5967     0.0000     0.0000 </r>
       <r>   -22.5063    22.1021     2.0000 </r>
       <r>   -22.4158     0.0000     2.0000 </r>
       <r>   -22.3253     0.0000     2.0000 </r>
       <r>   -22.2348     0.0000     2.0000 </r>
       <r>   -22.1443     0.0000     2.0000 </r>
       <r>   -22.0538     0.0000     2.0000 </r>
       <r>   -21.9633    22.1021     4.0000 </r>
       <r>   -21.8728     0.0000     4.0000 </r>
       <r>   -21.7823     1.6661     4.1508 </r>
       <r>   -21.6919    39.3878     9.5642 </r>
       <r>   -21.6014    43.9369    13.9758 </r>
       <r>   -21.5109     0.0000    14.0000 </r>
       <r>   -21.4204     0.0000    14.0000 </r>
       <r>   -21.3299     0.0000    14.0000 </r>
       <r>   -21.2394     7.2731    14.6581 </r>
       <r>   -21.1489     0.0000    16.0000 </r>
       <r>   -21.0584    20.8561    17.8872 </r>
       <r>   -20.9679    33.6362    21.0437 </r>
       <r>   -20.8775    31.5863    24.8582 </r>
       <r>   -20.7870     0.0000    26.0000 </r>
       <r>   -20.6965    40.2460    29.6418 </r>
       <r>   -20.6060    23.5111    32.1275 </r>
       <r>   -20.5155    42.7952    36.0000 </r>
       <r>   -20.4250    14.4661    37.3090 </r>
       <r>   -20.3345     0.0000    38.0000 </r>
       <r>   -20.2440     0.0000    38.0000 </r>
       <r>   -20.1535     0.0000    38.0000 </r>
       <r>   -20.0631     0.0000    38.0000 </r>
       <r>   -19.9726    19.2527    39.7422 </r>
       <r>   -19.8821    22.1021    42.0000 </r>
       <r>   -19.7916    20.9651    43.8971 </r>
       <r>   -19.7011    91.6777    52.2959 </r>
       <r>   -19.6106    66.2004    59.9904 </r>
       <r>   -19.5201     0.0004    60.0000 </r>
       <r>   -19.4296    22.1250    62.0021 </r>
       <r>   -19.3391    66.1445    67.9875 </r>
       <r>   -19.2487    24.2992    70.1988 </r>
       <r>   -19.1582     0.0000    72.0000 </r>
       <r>   -19.0677    22.1021    74.0000 </r>
       <r>   -18.9772    22.0858    75.9985 </r>
       <r>   -18.8867    23.1145    78.0916 </r>
       <r>   -18.7962    65.2943    84.0000 </r>
       <r>   -18.7057    87.9014    91.9542 </r>
       <r>   -18.6152    20.6612    94.0000 </r>
       <r>   -18.5247     0.0000    94.0000 </r>
       <r>   -18.4342    20.6998    95.8731 </r>
       <r>   -18.3438     0.0000    96.0000 </r>
       <r>   -18.2533     0.0000    96.0000 </r>
       <r>   -18.1628     0.0000    96.0000 </r>
       <r>   -18.0723     0.0000    96.0000 </r>
       <r>   -17.9818     0.0000    96.0000 </r>
       <r>   -17.8913     0.0000    96.0000 </r>
       <r>   -17.8008     0.0000    96.0000 </r>
       <r>   -17.7103     0.0000    96.0000 </r>
       <r>   -17.6198     0.0000    96.0000 </r>
       <r>   -17.5294     0.0000    96.0000 </r>
       <r>   -17.4389     0.0000    96.0000 </r>
       <r>   -17.3484     0.0000    96.0000 </r>
       <r>   -17.2579     0.0000    96.0000 </r>
       <r>   -17.1674     0.0000    96.0000 </r>
       <r>   -17.0769     0.0000    96.0000 </r>
       <r>   -16.9864     0.0000    96.0000 </r>
       <r>   -16.8959     0.0000    96.0000 </r>
       <r>   -16.8054     0.0000    96.0000 </r>
       <r>   -16.7150     0.0000    96.0000 </r>
       <r>   -16.6245     0.0000    96.0000 </r>
       <r>   -16.5340     0.0000    96.0000 </r>
       <r>   -16.4435     0.0000    96.0000 </r>
       <r>   -16.3530     0.0000    96.0000 </r>
       <r>   -16.2625     0.0000    96.0000 </r>
       <r>   -16.1720     0.0000    96.0000 </r>
       <r>   -16.0815     0.0000    96.0000 </r>
       <r>   -15.9910     0.0000    96.0000 </r>
       <r>   -15.9006     0.0000    96.0000 </r>
       <r>   -15.8101     0.0000    96.0000 </r>
       <r>   -15.7196     0.0000    96.0000 </r>
       <r>   -15.6291     0.0000    96.0000 </r>
       <r>   -15.5386     0.0000    96.0000 </r>
       <r>   -15.4481     0.0000    96.0000 </r>
       <r>   -15.3576     0.0000    96.0000 </r>
       <r>   -15.2671     0.0000    96.0000 </r>
       <r>   -15.1766     0.0000    96.0000 </r>
       <r>   -15.0862     0.0000    96.0000 </r>
       <r>   -14.9957     0.0000    96.0000 </r>
       <r>   -14.9052     0.0000    96.0000 </r>
       <r>   -14.8147     0.0000    96.0000 </r>
       <r>   -14.7242     0.0000    96.0000 </r>
       <r>   -14.6337     0.0000    96.0000 </r>
       <r>   -14.5432     0.0000    96.0000 </r>
       <r>   -14.4527     0.0000    96.0000 </r>
       <r>   -14.3622     0.0000    96.0000 </r>
       <r>   -14.2717     0.0000    96.0000 </r>
       <r>   -14.1813     0.0000    96.0000 </r>
       <r>   -14.0908    22.1021    98.0000 </r>
       <r>   -14.0003     0.0000    98.0000 </r>
       <r>   -13.9098     0.0000    98.0000 </r>
       <r>   -13.8193     0.0000    98.0000 </r>
       <r>   -13.7288     0.0000    98.0000 </r>
       <r>   -13.6383     0.0000    98.0000 </r>
       <r>   -13.5478     0.0000    98.0000 </r>
       <r>   -13.4573     0.0000    98.0000 </r>
       <r>   -13.3669     0.0000    98.0000 </r>
       <r>   -13.2764     0.0000    98.0000 </r>
       <r>   -13.1859     4.9758    98.4503 </r>
       <r>   -13.0954    61.7375   105.5866 </r>
       <r>   -13.0049    43.1569   109.9391 </r>
       <r>   -12.9144    66.2795   115.9976 </r>
       <r>   -12.8239     0.1028   116.0093 </r>
       <r>   -12.7334    44.1014   120.0000 </r>
       <r>   -12.6429     0.0000   120.0000 </r>
       <r>   -12.5525    22.1021   122.0000 </r>
       <r>   -12.4620    44.1864   125.9984 </r>
       <r>   -12.3715    18.8318   127.7041 </r>
       <r>   -12.2810    43.9756   131.9793 </r>
       <r>   -12.1905     0.3866   132.0350 </r>
       <r>   -12.1000    21.7155   134.0000 </r>
       <r>   -12.0095     0.0000   134.0000 </r>
       <r>   -11.9190     0.1536   134.0139 </r>
       <r>   -11.8285    44.0506   138.0000 </r>
       <r>   -11.7381    80.6690   145.2997 </r>
       <r>   -11.6476    42.8675   149.8790 </r>
       <r>   -11.5571    21.9214   152.0144 </r>
       <r>   -11.4666    21.9434   154.0000 </r>
       <r>   -11.3761    22.1021   156.0000 </r>
       <r>   -11.2856     0.0000   156.0000 </r>
       <r>   -11.1951    14.1841   157.2835 </r>
       <r>   -11.1046    22.1772   160.0068 </r>
       <r>   -11.0141    44.0514   164.0000 </r>
       <r>   -10.9237    23.3335   166.1114 </r>
       <r>   -10.8332    20.8707   168.0000 </r>
       <r>   -10.7427     0.0000   168.0000 </r>
       <r>   -10.6522    22.1021   170.0000 </r>
       <r>   -10.5617     0.0000   170.0000 </r>
       <r>   -10.4712     1.9837   170.1795 </r>
       <r>   -10.3807    22.1022   174.0000 </r>
       <r>   -10.2902    22.1020   176.0000 </r>
       <r>   -10.1997    41.0915   179.7183 </r>
       <r>   -10.1093     0.0000   180.0000 </r>
       <r>   -10.0188     0.0000   180.0000 </r>
       <r>    -9.9283     0.0000   180.0000 </r>
       <r>    -9.8378    22.1021   182.0000 </r>
       <r>    -9.7473    44.0268   185.9839 </r>
       <r>    -9.6568    44.1001   189.9914 </r>
       <r>    -9.5663    22.0735   191.9974 </r>
       <r>    -9.4758    46.2149   196.1840 </r>
       <r>    -9.3853     0.0000   198.0000 </r>
       <r>    -9.2948    48.8716   202.4224 </r>
       <r>    -9.2044   162.9437   218.7446 </r>
       <r>    -9.1139    60.4780   229.4726 </r>
       <r>    -9.0234    43.7094   235.9993 </r>
       <r>    -8.9329    22.1019   238.0000 </r>
       <r>    -8.8424    14.6551   239.3261 </r>
       <r>    -8.7519    22.1021   242.0000 </r>
       <r>    -8.6614     2.5609   242.2317 </r>
       <r>    -8.5709     0.0000   244.0000 </r>
       <r>    -8.4804    33.5149   247.0327 </r>
       <r>    -8.3900    22.1021   250.0000 </r>
       <r>    -8.2995    22.1014   251.9999 </r>
       <r>    -8.2090    26.2226   254.3729 </r>
       <r>    -8.1185    81.2743   263.4536 </r>
       <r>    -8.0280    20.4786   265.8531 </r>
       <r>    -7.9375    43.3667   269.9242 </r>
       <r>    -7.8470    41.7637   273.7792 </r>
       <r>    -7.7565    66.4061   282.0090 </r>
       <r>    -7.6660   116.1076   292.5155 </r>
       <r>    -7.5756    44.2036   298.0000 </r>
       <r>    -7.4851     0.0000   298.0000 </r>
       <r>    -7.3946    67.9325   304.1471 </r>
       <r>    -7.3041    22.1022   308.0000 </r>
       <r>    -7.2136    22.1019   310.0000 </r>
       <r>    -7.1231     0.0000   310.0000 </r>
       <r>    -7.0326     0.0000   310.0000 </r>
       <r>    -6.9421     0.0000   310.0000 </r>
       <r>    -6.8516     0.1023   310.0093 </r>
       <r>    -6.7612    28.6529   312.6020 </r>
       <r>    -6.6707     0.0000   314.0000 </r>
       <r>    -6.5802    44.2027   317.9999 </r>
       <r>    -6.4897    73.1822   324.6222 </r>
       <r>    -6.3992   126.0359   337.4049 </r>
       <r>    -6.3087    64.4058   343.8280 </r>
       <r>    -6.2182     0.0000   344.0000 </r>
       <r>    -6.1277     0.0862   344.0078 </r>
       <r>    -6.0372    22.0159   346.0000 </r>
       <r>    -5.9468    22.1184   348.0015 </r>
       <r>    -5.8563    84.0916   355.6113 </r>
       <r>    -5.7658    43.3687   359.9244 </r>
       <r>    -5.6753     0.0000   360.0000 </r>
       <r>    -5.5848     0.0000   360.0000 </r>
       <r>    -5.4943    22.1021   362.0000 </r>
       <r>    -5.4038     0.0000   362.0000 </r>
       <r>    -5.3133     0.0000   362.0000 </r>
       <r>    -5.2228     9.0708   362.8208 </r>
       <r>    -5.1323    75.0837   370.7946 </r>
       <r>    -5.0419    22.1016   374.0000 </r>
       <r>    -4.9514    25.6538   376.3214 </r>
       <r>    -4.8609    66.3063   384.0000 </r>
       <r>    -4.7704     0.0000   384.0000 </r>
       <r>    -4.6799    22.1021   386.0000 </r>
       <r>    -4.5894     0.0000   386.0000 </r>
       <r>    -4.4989     0.0000   386.0000 </r>
       <r>    -4.4084     0.0000   386.0000 </r>
       <r>    -4.3179     0.0000   386.0000 </r>
       <r>    -4.2275     0.0000   386.0000 </r>
       <r>    -4.1370     0.0000   386.0000 </r>
       <r>    -4.0465     0.0000   386.0000 </r>
       <r>    -3.9560     0.0000   386.0000 </r>
       <r>    -3.8655     0.0000   386.0000 </r>
       <r>    -3.7750     0.0000   386.0000 </r>
       <r>    -3.6845     0.0000   386.0000 </r>
       <r>    -3.5940     0.0000   386.0000 </r>
       <r>    -3.5035     0.0000   386.0000 </r>
       <r>    -3.4131     0.0000   386.0000 </r>
       <r>    -3.3226     0.0000   386.0000 </r>
       <r>    -3.2321     0.0000   386.0000 </r>
       <r>    -3.1416     0.0000   386.0000 </r>
       <r>    -3.0511     0.0000   386.0000 </r>
       <r>    -2.9606     0.0000   386.0000 </r>
       <r>    -2.8701     0.0000   386.0000 </r>
       <r>    -2.7796     0.0000   386.0000 </r>
       <r>    -2.6891     0.0000   386.0000 </r>
       <r>    -2.5987     0.0000   386.0000 </r>
       <r>    -2.5082     0.0000   386.0000 </r>
       <r>    -2.4177     0.0000   386.0000 </r>
       <r>    -2.3272     0.0000   386.0000 </r>
       <r>    -2.2367     0.0000   386.0000 </r>
       <r>    -2.1462     0.0000   386.0000 </r>
       <r>    -2.0557     0.0000   386.0000 </r>
       <r>    -1.9652     0.0000   386.0000 </r>
       <r>    -1.8747     0.0000   386.0000 </r>
       <r>    -1.7843     0.0000   386.0000 </r>
       <r>    -1.6938     0.0000   386.0000 </r>
       <r>    -1.6033     0.0000   386.0000 </r>
       <r>    -1.5128     0.0000   386.0000 </r>
       <r>    -1.4223     0.0000   386.0000 </r>
       <r>    -1.3318     0.1846   386.0167 </r>
       <r>    -1.2413    21.9175   388.0000 </r>
       <r>    -1.1508    22.1021   390.0000 </r>
       <r>    -1.0603     0.0000   390.0000 </r>
       <r>    -0.9698     0.0000   390.0000 </r>
       <r>    -0.8794     0.0000   390.0000 </r>
       <r>    -0.7889     0.0000   390.0000 </r>
       <r>    -0.6984     0.0000   390.0000 </r>
       <r>    -0.6079     0.0000   390.0000 </r>
       <r>    -0.5174     0.0000   390.0000 </r>
       <r>    -0.4269     0.0000   390.0000 </r>
       <r>    -0.3364     0.0000   390.0000 </r>
       <r>    -0.2459     0.0000   390.0000 </r>
       <r>    -0.1554     0.0000   390.0000 </r>
       <r>    -0.0650     0.0000   390.0000 </r>
       <r>     0.0255     0.0000   390.0000 </r>
       <r>     0.1160    22.1021   392.0000 </r>
       <r>     0.2065    12.9106   393.1683 </r>
       <r>     0.2970    74.7653   400.7655 </r>
       <r>     0.3875    25.4580   406.3037 </r>
       <r>     0.4780    32.1111   410.9057 </r>
       <r>     0.5685    22.1021   414.0000 </r>
       <r>     0.6590    22.1021   416.0000 </r>
       <r>     0.7494    27.6332   418.5005 </r>
       <r>     0.8399   101.8170   429.2133 </r>
       <r>     0.9304    44.0882   434.0000 </r>
       <r>     1.0209    34.3730   437.1104 </r>
       <r>     1.1114    25.7555   440.3306 </r>
       <r>     1.2019     0.0000   442.0000 </r>
       <r>     1.2924     0.0000   442.0000 </r>
       <r>     1.3829     0.0000   442.0000 </r>
       <r>     1.4734     0.0213   442.0019 </r>
       <r>     1.5638    22.0809   444.0000 </r>
       <r>     1.6543     0.0633   444.0057 </r>
       <r>     1.7448   116.4267   454.5411 </r>
       <r>     1.8353    46.2173   460.1822 </r>
       <r>     1.9258   137.3239   472.6086 </r>
       <r>     2.0163    22.7363   476.0574 </r>
       <r>     2.1068    37.8943   479.4864 </r>
       <r>     2.1973    66.2938   488.0000 </r>
       <r>     2.2878     0.0000   488.0000 </r>
       <r>     2.3782     0.0000   488.0000 </r>
       <r>     2.4687     0.0000   488.0000 </r>
       <r>     2.5592     0.0000   488.0000 </r>
       <r>     2.6497     0.0000   488.0000 </r>
       <r>     2.7402     0.0000   488.0000 </r>
       <r>     2.8307     0.0000   488.0000 </r>
       <r>     2.9212     0.0000   488.0000 </r>
       <r>     3.0117     0.0000   488.0000 </r>
       <r>     3.1022     0.0000   488.0000 </r>
       <r>     3.1926     0.0000   488.0000 </r>
       <r>     3.2831     0.0000   488.0000 </r>
       <r>     3.3736     0.0000   488.0000 </r>
      </set>
     </set>
    </array>
   </total>
  </dos>
 </calculation>
 <structure name="finalpos" >
  <crystal>
   <varray name="basis" >
    <v>      17.59966831       0.00000000       0.00000000 </v>
    <v>      -8.79983416      15.24175986       0.00000000 </v>
    <v>       0.00000000       0.00000000      19.92151445 </v>
   </varray>
   <i name="volume">   5343.94461817 </i>
   <varray name="rec_basis" >
    <v>       0.05681925       0.03280461       0.00000000 </v>
    <v>       0.00000000       0.06560922       0.00000000 </v>
    <v>       0.00000000       0.00000000       0.05019699 </v>
   </varray>
  </crystal>
  <varray name="positions" >
   <v>       0.99943010       0.00005992       0.50000000 </v>
   <v>       0.14164706       0.99871895       0.50000000 </v>
   <v>       0.28492260       0.99841663       0.50000000 </v>
   <v>       0.42850047       0.99871895       0.50000000 </v>
   <v>       0.57205839       0.00005992       0.50000000 </v>
   <v>       0.71530655       0.00214292       0.50000000 </v>
   <v>       0.85826494       0.00214292       0.50000000 </v>
   <v>       0.00080792       0.14408264       0.50000000 </v>
   <v>       0.14259355       0.14244783       0.50000000 </v>
   <v>       0.28470221       0.14112972       0.50000000 </v>
   <v>       0.42785608       0.14112972       0.50000000 </v>
   <v>       0.57128286       0.14244783       0.50000000 </v>
   <v>       0.71470329       0.14408264       0.50000000 </v>
   <v>       0.85805263       0.14467669       0.50000000 </v>
   <v>       0.00095476       0.28713011       0.50000000 </v>
   <v>       0.14372552       0.28645370       0.50000000 </v>
   <v>       0.28540977       0.28469374       0.50000000 </v>
   <v>       0.42724431       0.28306005       0.50000000 </v>
   <v>       0.57071254       0.28469374       0.50000000 </v>
   <v>       0.71415674       0.28645370       0.50000000 </v>
   <v>       0.85760392       0.28713011       0.50000000 </v>
   <v>       0.00054479       0.42966101       0.50000000 </v>
   <v>       0.14422690       0.42957551       0.50000000 </v>
   <v>       0.28730213       0.42918005       0.50000000 </v>
   <v>       0.42797654       0.42569726       0.50000000 </v>
   <v>       0.56914930       0.42569726       0.50000000 </v>
   <v>       0.71330650       0.42918005       0.50000000 </v>
   <v>       0.85677719       0.42957551       0.50000000 </v>
   <v>       0.99928255       0.57181462       0.50000000 </v>
   <v>       0.14396064       0.57181462       0.50000000 </v>
   <v>       0.28862787       0.57181625       0.50000000 </v>
   <v>       0.43313209       0.57215564       0.50000000 </v>
   <v>       0.71045212       0.57215564       0.50000000 </v>
   <v>       0.85461695       0.57181625       0.50000000 </v>
   <v>       0.99707234       0.71370518       0.50000000 </v>
   <v>       0.14255519       0.71368182       0.50000000 </v>
   <v>       0.28806142       0.71370518       0.50000000 </v>
   <v>       0.43464191       0.71382540       0.50000000 </v>
   <v>       0.58510826       0.71626937       0.50000000 </v>
   <v>       0.70258968       0.71626937       0.50000000 </v>
   <v>       0.85061206       0.71382540       0.50000000 </v>
   <v>       0.99777175       0.85613493       0.50000000 </v>
   <v>       0.14160898       0.85591288       0.50000000 </v>
   <v>       0.28573247       0.85591288       0.50000000 </v>
   <v>       0.42979175       0.85613493       0.50000000 </v>
   <v>       0.57342541       0.85758690       0.50000000 </v>
   <v>       0.71640633       0.86138410       0.50000000 </v>
   <v>       0.85559006       0.85758690       0.50000000 </v>
   <v>       0.04754270       0.09547788       0.50000000 </v>
   <v>       0.18957833       0.09405657       0.50000000 </v>
   <v>       0.33254182       0.09403125       0.50037619 </v>
   <v>       0.47590681       0.09405657       0.50000000 </v>
   <v>       0.61936376       0.09547788       0.50000000 </v>
   <v>       0.76280004       0.09719274       0.50000000 </v>
   <v>       0.90582126       0.09719274       0.50000000 </v>
   <v>       0.04854983       0.23934281       0.50000000 </v>
   <v>       0.19048138       0.23782962       0.50000000 </v>
   <v>       0.33234878       0.23634667       0.50000000 </v>
   <v>       0.47542646       0.23634667       0.50000000 </v>
   <v>       0.61877681       0.23782962       0.50000000 </v>
   <v>       0.76222155       0.23934281       0.50000000 </v>
   <v>       0.90562797       0.23982737       0.50000000 </v>
   <v>       0.04871288       0.38232824       0.50000000 </v>
   <v>       0.19188940       0.38184213       0.50000000 </v>
   <v>       0.33352206       0.38013969       0.50000000 </v>
   <v>       0.47472270       0.37801683       0.50000000 </v>
   <v>       0.61804620       0.38013969       0.50000000 </v>
   <v>       0.76138130       0.38184213       0.50000000 </v>
   <v>       0.90504393       0.38232824       0.50000000 </v>
   <v>       0.04810654       0.52478452       0.50000000 </v>
   <v>       0.19263929       0.52476864       0.50000000 </v>
   <v>       0.33696521       0.52455433       0.50000000 </v>
   <v>       0.47833704       0.52146721       0.50000000 </v>
   <v>       0.61455874       0.52146721       0.50000000 </v>
   <v>       0.75901769       0.52455433       0.50000000 </v>
   <v>       0.90355792       0.52476864       0.50000000 </v>
   <v>       0.04642473       0.66685228       0.50000000 </v>
   <v>       0.19185612       0.66685228       0.50000000 </v>
   <v>       0.33777931       0.66688794       0.50000000 </v>
   <v>       0.48615700       0.66710760       0.50000000 </v>
   <v>       0.75237918       0.66710760       0.50000000 </v>
   <v>       0.90053720       0.66688794       0.50000000 </v>
   <v>       0.04582562       0.80879365       0.50000000 </v>
   <v>       0.19009580       0.80876303       0.50000000 </v>
   <v>       0.33439660       0.80879365       0.50000000 </v>
   <v>       0.47844872       0.80897069       0.50000000 </v>
   <v>       0.62209487       0.81129474       0.50000000 </v>
   <v>       0.76062845       0.81129474       0.50000000 </v>
   <v>       0.90195054       0.80897069       0.50000000 </v>
   <v>       0.04629157       0.95154386       0.50000000 </v>
   <v>       0.18948291       0.95113037       0.50000000 </v>
   <v>       0.33307603       0.95113037       0.50000000 </v>
   <v>       0.47668087       0.95154386       0.50000000 </v>
   <v>       0.62015751       0.95313740       0.50000000 </v>
   <v>       0.76355772       0.95568687       0.50000000 </v>
   <v>       0.90440847       0.95313740       0.50000000 </v>
   <v>       0.56830873       0.56518888       0.50000000 </v>
  </varray>
 </structure>
</modeling>
