<?xml version="1.0" encoding="ISO-8859-1"?>
<modeling>
 <generator>
  <i name="program" type="string">vasp </i>
  <i name="version" type="string">5.4.4.18Apr17-6-g9f103f2a35  </i>
  <i name="subversion" type="string">(build Oct 18 2020 22:16:12) gamma-only         parallel </i>
  <i name="platform" type="string">UA-vaughan-2020a </i>
  <i name="date" type="string">2023 03 21 </i>
  <i name="time" type="string">18:40:41 </i>
 </generator>
 <incar>
  <i type="string" name="PREC">accurate</i>
  <i type="int" name="IALGO">    38</i>
  <i type="logical" name="ADDGRID"> T  </i>
  <i type="int" name="NELMIN">     5</i>
  <i type="int" name="IBRION">    -1</i>
  <i name="EDIFF">      0.00000001</i>
  <i name="EDIFFG">     -0.00000001</i>
  <i type="int" name="NSW">     0</i>
  <i type="int" name="ISIF">     2</i>
  <i name="ENCUT">    500.00000000</i>
  <i type="logical" name="LREAL"> F  </i>
  <i type="int" name="ISMEAR">     0</i>
  <i name="SIGMA">      0.01000000</i>
  <i type="logical" name="LWAVE"> F  </i>
  <i type="logical" name="LCHARG"> F  </i>
  <v type="int" name="KPOINT_BSE">    -1     0     0     0</v>
 </incar>
 <structure name="primitive_cell" >
  <crystal>
   <varray name="basis" >
    <v>      17.59966831       0.00000000       0.00000000 </v>
    <v>      -8.79983416      15.24175986       0.00000000 </v>
    <v>       0.00000000       0.00000000      19.92151445 </v>
   </varray>
   <i name="volume">   5343.94461817 </i>
   <varray name="rec_basis" >
    <v>       0.05681925       0.03280461       0.00000000 </v>
    <v>       0.00000000       0.06560922       0.00000000 </v>
    <v>       0.00000000       0.00000000       0.05019699 </v>
   </varray>
  </crystal>
  <varray name="positions" >
   <v>      -0.00056990       0.00005992      -0.50000000 </v>
   <v>      -0.09559153      -0.04686260      -0.50000000 </v>
   <v>       0.04629157      -0.04845614      -0.50000000 </v>
   <v>       0.04754270       0.09547788      -0.50000000 </v>
   <v>      -0.14173506       0.00214292      -0.50000000 </v>
   <v>       0.14259355       0.14244783      -0.50000000 </v>
   <v>       0.14164706      -0.00128105      -0.50000000 </v>
   <v>      -0.00222825      -0.14386507      -0.50000000 </v>
   <v>      -0.14440994      -0.14241310      -0.50000000 </v>
   <v>       0.00080792       0.14408264      -0.50000000 </v>
   <v>       0.18957833       0.09405657      -0.50000000 </v>
   <v>      -0.09417874       0.09719274      -0.50000000 </v>
   <v>      -0.09804946      -0.19102931      -0.50000000 </v>
   <v>      -0.23644228      -0.04431313      -0.50000000 </v>
   <v>      -0.23937155      -0.18870526      -0.50000000 </v>
   <v>       0.19048138       0.23782962      -0.50000000 </v>
   <v>       0.04582562      -0.19120635      -0.50000000 </v>
   <v>       0.18948291      -0.04886963      -0.50000000 </v>
   <v>       0.04854983       0.23934281      -0.50000000 </v>
   <v>      -0.28359367      -0.13861590      -0.50000000 </v>
   <v>       0.28470221       0.14112972      -0.50000000 </v>
   <v>      -0.14194737       0.14467669      -0.50000000 </v>
   <v>      -0.14938794      -0.28617460      -0.50000000 </v>
   <v>       0.14160898      -0.14408712      -0.50000000 </v>
   <v>       0.14372552       0.28645370      -0.50000000 </v>
   <v>      -0.28469345       0.00214292      -0.50000000 </v>
   <v>      -0.00292766      -0.28629482      -0.50000000 </v>
   <v>       0.28540977       0.28469374      -0.50000000 </v>
   <v>       0.00095476       0.28713011      -0.50000000 </v>
   <v>       0.28492260      -0.00158337      -0.50000000 </v>
   <v>      -0.29741032      -0.28373063      -0.50000000 </v>
   <v>      -0.09946280      -0.33311206      -0.50000000 </v>
   <v>       0.33234878       0.23634667      -0.50000000 </v>
   <v>      -0.23719996       0.09719274      -0.50000000 </v>
   <v>       0.33254182       0.09365506      -0.50000000 </v>
   <v>      -0.09437203       0.23982737      -0.50000000 </v>
   <v>      -0.24762082      -0.33289240      -0.50000000 </v>
   <v>      -0.37790513      -0.18870526      -0.50000000 </v>
   <v>       0.19188940       0.38184213      -0.50000000 </v>
   <v>       0.19009580      -0.19123697      -0.50000000 </v>
   <v>      -0.37984249      -0.04686260      -0.50000000 </v>
   <v>       0.04642473      -0.33314772      -0.50000000 </v>
   <v>       0.33352206       0.38013969      -0.50000000 </v>
   <v>       0.04871288       0.38232824      -0.50000000 </v>
   <v>       0.33307603      -0.04886963      -0.50000000 </v>
   <v>      -0.41489174      -0.28373063      -0.50000000 </v>
   <v>      -0.42657459      -0.14241310      -0.50000000 </v>
   <v>       0.42724431       0.28343624      -0.49962381 </v>
   <v>      -0.14538305      -0.42818375      -0.50000000 </v>
   <v>      -0.28529671       0.14408264      -0.50000000 </v>
   <v>      -0.28954788      -0.42784436      -0.50000000 </v>
   <v>       0.42785608       0.14112972      -0.50000000 </v>
   <v>      -0.14239608       0.28713011      -0.50000000 </v>
   <v>       0.14422690       0.42957551      -0.50000000 </v>
   <v>       0.28730213       0.42918005      -0.50000000 </v>
   <v>       0.14255519      -0.28631818      -0.50000000 </v>
   <v>       0.28573247      -0.14408712      -0.50000000 </v>
   <v>      -0.24098231      -0.47544567      -0.50000000 </v>
   <v>       0.47542646       0.23634667      -0.50000000 </v>
   <v>      -0.23777845       0.23934281      -0.50000000 </v>
   <v>       0.42797654       0.42569726      -0.50000000 </v>
   <v>      -0.42794161       0.00005992      -0.50000000 </v>
   <v>      -0.00071745      -0.42818538      -0.50000000 </v>
   <v>       0.00054479       0.42966101      -0.50000000 </v>
   <v>       0.42850047      -0.00128105      -0.50000000 </v>
   <v>      -0.43169127      -0.43481112      -0.50000000 </v>
   <v>       0.47472270       0.37801683      -0.50000000 </v>
   <v>      -0.09644208      -0.47523136      -0.50000000 </v>
   <v>      -0.38063624       0.09547788      -0.50000000 </v>
   <v>       0.47590681       0.09405657      -0.50000000 </v>
   <v>      -0.09495607       0.38232824      -0.50000000 </v>
   <v>      -0.38544126      -0.47853279      -0.50000000 </v>
   <v>       0.48615700      -0.33289240      -0.50000000 </v>
   <v>       0.47844872      -0.19102931      -0.50000000 </v>
   <v>       0.19263929      -0.47523136      -0.50000000 </v>
   <v>       0.33696521      -0.47544567      -0.50000000 </v>
   <v>       0.19185612      -0.33314772      -0.50000000 </v>
   <v>       0.33439660      -0.19120635      -0.50000000 </v>
   <v>       0.43464191      -0.28617460      -0.50000000 </v>
   <v>      -0.28669350       0.42918005      -0.50000000 </v>
   <v>      -0.42928746       0.28469374      -0.50000000 </v>
   <v>      -0.28584326       0.28645370      -0.50000000 </v>
   <v>       0.28862787      -0.42818375      -0.50000000 </v>
   <v>       0.28806142      -0.28629482      -0.50000000 </v>
   <v>       0.47668087      -0.04845614      -0.50000000 </v>
   <v>       0.47833704      -0.47853279      -0.50000000 </v>
   <v>       0.04810654      -0.47521548      -0.50000000 </v>
   <v>       0.43313209      -0.42784436      -0.50000000 </v>
   <v>       0.42979175      -0.14386507      -0.50000000 </v>
   <v>      -0.43085070       0.42569726      -0.50000000 </v>
   <v>      -0.14322281       0.42957551      -0.50000000 </v>
   <v>      -0.42871714       0.14244783      -0.50000000 </v>
   <v>       0.14396064      -0.42818538      -0.50000000 </v>
   <v>      -0.23861870       0.38184213      -0.50000000 </v>
   <v>      -0.38122319       0.23782962      -0.50000000 </v>
   <v>      -0.38195380       0.38013969      -0.50000000 </v>
   <v>       0.33777931      -0.33311206      -0.50000000 </v>
  </varray>
 </structure>
 <varray name="primitive_index" >
  <v type="int" >        1 </v>
  <v type="int" >       96 </v>
  <v type="int" >       90 </v>
  <v type="int" >       49 </v>
  <v type="int" >        7 </v>
  <v type="int" >        9 </v>
  <v type="int" >        2 </v>
  <v type="int" >       42 </v>
  <v type="int" >       48 </v>
  <v type="int" >        8 </v>
  <v type="int" >       50 </v>
  <v type="int" >       55 </v>
  <v type="int" >       89 </v>
  <v type="int" >       95 </v>
  <v type="int" >       88 </v>
  <v type="int" >       57 </v>
  <v type="int" >       83 </v>
  <v type="int" >       91 </v>
  <v type="int" >       56 </v>
  <v type="int" >       47 </v>
  <v type="int" >       10 </v>
  <v type="int" >       14 </v>
  <v type="int" >       41 </v>
  <v type="int" >       43 </v>
  <v type="int" >       16 </v>
  <v type="int" >        6 </v>
  <v type="int" >       35 </v>
  <v type="int" >       17 </v>
  <v type="int" >       15 </v>
  <v type="int" >        3 </v>
  <v type="int" >       40 </v>
  <v type="int" >       82 </v>
  <v type="int" >       58 </v>
  <v type="int" >       54 </v>
  <v type="int" >       51 </v>
  <v type="int" >       62 </v>
  <v type="int" >       81 </v>
  <v type="int" >       87 </v>
  <v type="int" >       64 </v>
  <v type="int" >       84 </v>
  <v type="int" >       94 </v>
  <v type="int" >       77 </v>
  <v type="int" >       65 </v>
  <v type="int" >       63 </v>
  <v type="int" >       92 </v>
  <v type="int" >       39 </v>
  <v type="int" >       46 </v>
  <v type="int" >       18 </v>
  <v type="int" >       34 </v>
  <v type="int" >       13 </v>
  <v type="int" >       33 </v>
  <v type="int" >       11 </v>
  <v type="int" >       21 </v>
  <v type="int" >       23 </v>
  <v type="int" >       24 </v>
  <v type="int" >       36 </v>
  <v type="int" >       44 </v>
  <v type="int" >       75 </v>
  <v type="int" >       59 </v>
  <v type="int" >       61 </v>
  <v type="int" >       25 </v>
  <v type="int" >        5 </v>
  <v type="int" >       29 </v>
  <v type="int" >       22 </v>
  <v type="int" >        4 </v>
  <v type="int" >       97 </v>
  <v type="int" >       66 </v>
  <v type="int" >       76 </v>
  <v type="int" >       53 </v>
  <v type="int" >       52 </v>
  <v type="int" >       69 </v>
  <v type="int" >       74 </v>
  <v type="int" >       80 </v>
  <v type="int" >       86 </v>
  <v type="int" >       71 </v>
  <v type="int" >       72 </v>
  <v type="int" >       78 </v>
  <v type="int" >       85 </v>
  <v type="int" >       38 </v>
  <v type="int" >       27 </v>
  <v type="int" >       19 </v>
  <v type="int" >       20 </v>
  <v type="int" >       31 </v>
  <v type="int" >       37 </v>
  <v type="int" >       93 </v>
  <v type="int" >       73 </v>
  <v type="int" >       70 </v>
  <v type="int" >       32 </v>
  <v type="int" >       45 </v>
  <v type="int" >       26 </v>
  <v type="int" >       28 </v>
  <v type="int" >       12 </v>
  <v type="int" >       30 </v>
  <v type="int" >       68 </v>
  <v type="int" >       60 </v>
  <v type="int" >       67 </v>
  <v type="int" >       79 </v>
 </varray>
 <kpoints>
  <generation param="Gamma">
   <v type="int" name="divisions">       1        1        1 </v>
   <v name="usershift">      0.00000000       0.00000000       0.00000000 </v>
   <v name="genvec1">      1.00000000      -0.00000000       0.00000000 </v>
   <v name="genvec2">      0.00000000       1.00000000       0.00000000 </v>
   <v name="genvec3">      0.00000000       0.00000000       1.00000000 </v>
   <v name="shift">      0.00000000       0.00000000       0.00000000 </v>
  </generation>
  <varray name="kpointlist" >
   <v>       0.00000000       0.00000000       0.00000000 </v>
  </varray>
  <varray name="weights" >
   <v>       1.00000000 </v>
  </varray>
 </kpoints>
 <parameters>
  <separator name="general" >
   <i type="string" name="SYSTEM">unknown system</i>
   <i type="logical" name="LCOMPAT"> F  </i>
  </separator>
  <separator name="electronic" >
   <i type="string" name="PREC">accura</i>
   <i name="ENMAX">    500.00000000</i>
   <i name="ENAUG">    644.87300000</i>
   <i name="EDIFF">      0.00000001</i>
   <i type="int" name="IALGO">    38</i>
   <i type="int" name="IWAVPR">    10</i>
   <i type="int" name="NBANDS">   244</i>
   <i name="NELECT">    388.00000000</i>
   <i type="int" name="TURBO">     0</i>
   <i type="int" name="IRESTART">     0</i>
   <i type="int" name="NREBOOT">     0</i>
   <i type="int" name="NMIN">     0</i>
   <i name="EREF">      0.00000000</i>
   <separator name="electronic smearing" >
    <i type="int" name="ISMEAR">     0</i>
    <i name="SIGMA">      0.01000000</i>
    <i name="KSPACING">      0.50000000</i>
    <i type="logical" name="KGAMMA"> T  </i>
   </separator>
   <separator name="electronic projectors" >
    <i type="logical" name="LREAL"> F  </i>
    <v name="ROPT">      0.00000000      0.00000000      0.00000000</v>
    <i type="int" name="LMAXPAW">  -100</i>
    <i type="int" name="LMAXMIX">     2</i>
    <i type="logical" name="NLSPLINE"> F  </i>
   </separator>
   <separator name="electronic startup" >
    <i type="int" name="ISTART">     0</i>
    <i type="int" name="ICHARG">     2</i>
    <i type="int" name="INIWAV">     1</i>
   </separator>
   <separator name="electronic spin" >
    <i type="int" name="ISPIN">     1</i>
    <i type="logical" name="LNONCOLLINEAR"> F  </i>
    <v name="MAGMOM">      1.00000000      1.00000000      1.00000000      1.00000000      1.00000000      1.00000000      1.00000000      1.00000000      1.00000000      1.00000000      1.00000000      1.00000000      1.00000000      1.00000000      1.00000000      1.00000000      1.00000000      1.00000000      1.00000000      1.00000000
      1.00000000      1.00000000      1.00000000      1.00000000      1.00000000      1.00000000      1.00000000      1.00000000      1.00000000      1.00000000      1.00000000      1.00000000      1.00000000      1.00000000      1.00000000      1.00000000      1.00000000      1.00000000      1.00000000      1.00000000
      1.00000000      1.00000000      1.00000000      1.00000000      1.00000000      1.00000000      1.00000000      1.00000000      1.00000000      1.00000000      1.00000000      1.00000000      1.00000000      1.00000000      1.00000000      1.00000000      1.00000000      1.00000000      1.00000000      1.00000000
      1.00000000      1.00000000      1.00000000      1.00000000      1.00000000      1.00000000      1.00000000      1.00000000      1.00000000      1.00000000      1.00000000      1.00000000      1.00000000      1.00000000      1.00000000      1.00000000      1.00000000      1.00000000      1.00000000      1.00000000
      1.00000000      1.00000000      1.00000000      1.00000000      1.00000000      1.00000000      1.00000000      1.00000000      1.00000000      1.00000000      1.00000000      1.00000000      1.00000000      1.00000000      1.00000000      1.00000000      1.00000000</v>
    <i name="NUPDOWN">     -1.00000000</i>
    <i type="logical" name="LSORBIT"> F  </i>
    <v name="SAXIS">      0.00000000      0.00000000      1.00000000</v>
    <i type="logical" name="LSPIRAL"> F  </i>
    <v name="QSPIRAL">      0.00000000      0.00000000      0.00000000</v>
    <i type="logical" name="LZEROZ"> F  </i>
   </separator>
   <separator name="electronic exchange-correlation" >
    <i type="logical" name="LASPH"> F  </i>
    <i type="logical" name="LMETAGGA"> F  </i>
   </separator>
   <separator name="electronic convergence" >
    <i type="int" name="NELM">    60</i>
    <i type="int" name="NELMDL">    -5</i>
    <i type="int" name="NELMIN">     5</i>
    <i name="ENINI">    500.00000000</i>
    <separator name="electronic convergence detail" >
     <i type="logical" name="LDIAG"> T  </i>
     <i type="logical" name="LSUBROT"> F  </i>
     <i name="WEIMIN">      0.00000000</i>
     <i name="EBREAK">      0.00000000</i>
     <i name="DEPER">      0.30000000</i>
     <i type="int" name="NRMM">     4</i>
     <i name="TIME">      0.40000000</i>
    </separator>
   </separator>
   <separator name="electronic mixer" >
    <i name="AMIX">      0.40000000</i>
    <i name="BMIX">      1.00000000</i>
    <i name="AMIN">      0.10000000</i>
    <i name="AMIX_MAG">      1.60000000</i>
    <i name="BMIX_MAG">      1.00000000</i>
    <separator name="electronic mixer details" >
     <i type="int" name="IMIX">     4</i>
     <i type="logical" name="MIXFIRST"> F  </i>
     <i type="int" name="MAXMIX">   -45</i>
     <i name="WC">    100.00000000</i>
     <i type="int" name="INIMIX">     1</i>
     <i type="int" name="MIXPRE">     1</i>
     <i type="int" name="MREMOVE">     5</i>
    </separator>
   </separator>
   <separator name="electronic dipolcorrection" >
    <i type="logical" name="LDIPOL"> F  </i>
    <i type="logical" name="LMONO"> F  </i>
    <i type="int" name="IDIPOL">     0</i>
    <i name="EPSILON">      1.00000000</i>
    <v name="DIPOL">   -100.00000000   -100.00000000   -100.00000000</v>
    <i name="EFIELD">      0.00000000</i>
   </separator>
  </separator>
  <separator name="grids" >
   <i type="int" name="NGX">   128</i>
   <i type="int" name="NGY">   128</i>
   <i type="int" name="NGZ">   150</i>
   <i type="int" name="NGXF">   256</i>
   <i type="int" name="NGYF">   256</i>
   <i type="int" name="NGZF">   300</i>
   <i type="logical" name="ADDGRID"> T  </i>
  </separator>
  <separator name="ionic" >
   <i type="int" name="NSW">     0</i>
   <i type="int" name="IBRION">    -1</i>
   <i type="int" name="MDALGO">     0</i>
   <i type="int" name="ISIF">     2</i>
   <i name="PSTRESS">      0.00000000</i>
   <i name="EDIFFG">     -0.00000001</i>
   <i type="int" name="NFREE">     0</i>
   <i name="POTIM">      0.50000000</i>
   <i name="SMASS">     -3.00000000</i>
   <i name="SCALEE">      1.00000000</i>
  </separator>
  <separator name="ionic md" >
   <i name="TEBEG">      0.00010000</i>
   <i name="TEEND">      0.00010000</i>
   <i type="int" name="NBLOCK">     1</i>
   <i type="int" name="KBLOCK">     1</i>
   <i type="int" name="NPACO">   256</i>
   <i name="APACO">     16.00000000</i>
  </separator>
  <separator name="symmetry" >
   <i type="int" name="ISYM">     2</i>
   <i name="SYMPREC">      0.00001000</i>
  </separator>
  <separator name="dos" >
   <i type="int" name="LORBIT">     0</i>
   <v name="RWIGS">     -1.00000000     -1.00000000     -1.00000000</v>
   <i type="int" name="NEDOS">   301</i>
   <i name="EMIN">     10.00000000</i>
   <i name="EMAX">    -10.00000000</i>
   <i name="EFERMI">      0.00000000</i>
  </separator>
  <separator name="writing" >
   <i type="int" name="NWRITE">     2</i>
   <i type="logical" name="LWAVE"> F  </i>
   <i type="logical" name="LDOWNSAMPLE"> F  </i>
   <i type="logical" name="LCHARG"> F  </i>
   <i type="logical" name="LPARD"> F  </i>
   <i type="logical" name="LVTOT"> F  </i>
   <i type="logical" name="LVHAR"> F  </i>
   <i type="logical" name="LELF"> F  </i>
   <i type="logical" name="LOPTICS"> F  </i>
   <v name="STM">      0.00000000      0.00000000      0.00000000      0.00000000      0.00000000      0.00000000      0.00000000</v>
  </separator>
  <separator name="performance" >
   <i type="int" name="NPAR">     4</i>
   <i type="int" name="NSIM">     4</i>
   <i type="int" name="NBLK">    -1</i>
   <i type="logical" name="LPLANE"> T  </i>
   <i type="logical" name="LSCALAPACK"> T  </i>
   <i type="logical" name="LSCAAWARE"> F  </i>
   <i type="logical" name="LSCALU"> F  </i>
   <i type="logical" name="LASYNC"> F  </i>
   <i type="logical" name="LORBITALREAL"> F  </i>
  </separator>
  <separator name="miscellaneous" >
   <i type="int" name="IDIOT">     3</i>
   <i type="int" name="ISPECIAL">     0</i>
   <i type="logical" name="LMUSIC"> F  </i>
   <v name="POMASS">     10.81100000     14.00100000     12.01100000</v>
   <v name="DARWINR">      0.00000000      0.00000000      0.00000000</v>
   <v name="DARWINV">      1.00000000      1.00000000      1.00000000</v>
   <i type="logical" name="LCORR"> T  </i>
  </separator>
  <i type="logical" name="GGA_COMPAT"> T  </i>
  <i type="logical" name="LBERRY"> F  </i>
  <i type="int" name="ICORELEVEL">     0</i>
  <i type="logical" name="LDAU"> F  </i>
  <i type="int" name="I_CONSTRAINED_M">     0</i>
  <separator name="electronic exchange-correlation" >
   <i type="string" name="GGA">--</i>
   <i type="int" name="VOSKOWN">     0</i>
   <i type="logical" name="LHFCALC"> F  </i>
   <i type="string" name="PRECFOCK"></i>
   <i type="logical" name="LSYMGRAD"> F  </i>
   <i type="logical" name="LHFONE"> F  </i>
   <i type="logical" name="LRHFCALC"> F  </i>
   <i type="logical" name="LTHOMAS"> F  </i>
   <i type="logical" name="LMODELHF"> F  </i>
   <i name="ENCUT4O">     -1.00000000</i>
   <i type="int" name="EXXOEP">     0</i>
   <i type="int" name="FOURORBIT">     0</i>
   <i name="AEXX">      0.00000000</i>
   <i name="HFALPHA">      0.00000000</i>
   <i name="MCALPHA">      0.00000000</i>
   <i name="ALDAX">      1.00000000</i>
   <i name="AGGAX">      1.00000000</i>
   <i name="ALDAC">      1.00000000</i>
   <i name="AGGAC">      1.00000000</i>
   <i type="int" name="NKREDX">     1</i>
   <i type="int" name="NKREDY">     1</i>
   <i type="int" name="NKREDZ">     1</i>
   <i type="logical" name="SHIFTRED"> F  </i>
   <i type="logical" name="ODDONLY"> F  </i>
   <i type="logical" name="EVENONLY"> F  </i>
   <i type="int" name="LMAXFOCK">     0</i>
   <i type="int" name="NMAXFOCKAE">     0</i>
   <i type="logical" name="LFOCKAEDFT"> F  </i>
   <i name="HFSCREEN">      0.00000000</i>
   <i name="HFSCREENC">      0.00000000</i>
   <i type="int" name="NBANDSGWLOW">     0</i>
  </separator>
  <separator name="vdW DFT" >
   <i type="logical" name="LUSE_VDW"> F  </i>
   <i name="Zab_VDW">     -0.84910000</i>
   <i name="PARAM1">      0.12340000</i>
   <i name="PARAM2">      1.00000000</i>
   <i name="PARAM3">      0.00000000</i>
  </separator>
  <separator name="model GW" >
   <i type="int" name="MODEL_GW">     0</i>
   <i name="MODEL_EPS0">     33.05532754</i>
   <i name="MODEL_ALPHA">      1.00000000</i>
  </separator>
  <separator name="linear response parameters" >
   <i type="logical" name="LEPSILON"> F  </i>
   <i type="logical" name="LRPA"> F  </i>
   <i type="logical" name="LNABLA"> F  </i>
   <i type="logical" name="LVEL"> F  </i>
   <i type="int" name="KINTER">     0</i>
   <i name="CSHIFT">      0.10000000</i>
   <i name="OMEGAMAX">     -1.00000000</i>
   <i name="DEG_THRESHOLD">      0.00200000</i>
   <i name="RTIME">     -0.10000000</i>
   <i name="WPLASMAI">      0.00000000</i>
   <v name="DFIELD">      0.00000000      0.00000000      0.00000000</v>
   <v name="WPLASMA">      0.00000000      0.00000000      0.00000000      0.00000000      0.00000000      0.00000000      0.00000000      0.00000000      0.00000000</v>
  </separator>
  <separator name="orbital magnetization" >
   <i type="logical" name="NUCIND"> F  </i>
   <v name="MAGPOS">      0.00000000      0.00000000      0.00000000</v>
   <i type="logical" name="LNICSALL"> T  </i>
   <i type="logical" name="ORBITALMAG"> F  </i>
   <i type="logical" name="LMAGBLOCH"> F  </i>
   <i type="logical" name="LCHIMAG"> F  </i>
   <i type="logical" name="LGAUGE"> T  </i>
   <i type="int" name="MAGATOM">     0</i>
   <v name="MAGDIPOL">      0.00000000      0.00000000      0.00000000</v>
   <v name="AVECCONST">      0.00000000      0.00000000      0.00000000</v>
  </separator>
  <separator name="response functions" >
   <i type="logical" name="LADDER"> F  </i>
   <i type="logical" name="LRPAFORCE"> F  </i>
   <i type="logical" name="LFXC"> F  </i>
   <i type="logical" name="LHARTREE"> T  </i>
   <i type="int" name="IBSE">     0</i>
   <v type="int" name="KPOINT">    -1     0     0     0</v>
   <i type="logical" name="LTCTE"> F  </i>
   <i type="logical" name="LTETE"> F  </i>
   <i type="logical" name="LTRIPLET"> F  </i>
   <i type="logical" name="LFXCEPS"> F  </i>
   <i type="logical" name="LFXHEG"> F  </i>
   <i type="int" name="NATURALO">     2</i>
   <i type="logical" name="L2ORDER"> F  </i>
   <i type="logical" name="LMP2LT"> F  </i>
   <i type="logical" name="LUSEW"> F  </i>
   <i name="ENCUTGW">     -2.00000000</i>
   <i name="ENCUTGWSOFT">     -2.00000000</i>
   <i name="ENCUTLF">     -1.00000000</i>
   <i type="int" name="LMAXMP2">    -1</i>
   <i name="SCISSOR">      0.00000000</i>
   <i type="int" name="NOMEGA">     0</i>
   <i type="int" name="NOMEGAR">     0</i>
   <i type="int" name="NBANDSGW">    -1</i>
   <i type="int" name="NBANDSO">    -1</i>
   <i type="int" name="NBANDSV">    -1</i>
   <i type="int" name="NELM">     1</i>
   <i type="int" name="NELMHF">     1</i>
   <i type="int" name="DIM">     3</i>
   <i type="int" name="ANTIRES">     0</i>
   <i name="OMEGAMAX">    -30.00000000</i>
   <i name="OMEGAMIN">    -30.00000000</i>
   <i name="OMEGATL">   -200.00000000</i>
   <i type="int" name="OMEGAGRID">   140</i>
   <i name="CSHIFT">     -0.10000000</i>
   <i type="logical" name="SELFENERGY"> F  </i>
   <i type="logical" name="LSPECTRAL"> F  </i>
   <i type="logical" name="LSPECTRALGW"> F  </i>
   <i type="logical" name="LSINGLES"> F  </i>
   <i type="logical" name="LFERMIGW"> F  </i>
   <i type="logical" name="ODDONLYGW"> F  </i>
   <i type="logical" name="EVENONLYGW"> F  </i>
   <i type="int" name="NKREDLFX">     1</i>
   <i type="int" name="NKREDLFY">     1</i>
   <i type="int" name="NKREDLFZ">     1</i>
   <i type="int" name="MAXMEM">  2800</i>
   <i type="int" name="TELESCOPE">     0</i>
   <i type="int" name="TAUPAR">     1</i>
   <i type="int" name="OMEGAPAR">    -1</i>
   <i name="LAMBDA">      1.00000000</i>
  </separator>
  <separator name="External order field" >
   <i name="OFIELD_KAPPA">      0.00000000</i>
   <v name="OFIELD_K">      0.00000000      0.00000000      0.00000000</v>
   <i name="OFIELD_Q6_NEAR">      0.00000000</i>
   <i name="OFIELD_Q6_FAR">      0.00000000</i>
   <i name="OFIELD_A">      0.00000000</i>
  </separator>
 </parameters>
 <atominfo>
  <atoms>      97 </atoms>
  <types>       3 </types>
  <array name="atoms" >
   <dimension dim="1">ion</dimension>
   <field type="string">element</field>
   <field type="int">atomtype</field>
   <set>
    <rc><c>B </c><c>   1</c></rc>
    <rc><c>B </c><c>   1</c></rc>
    <rc><c>B </c><c>   1</c></rc>
    <rc><c>B </c><c>   1</c></rc>
    <rc><c>B </c><c>   1</c></rc>
    <rc><c>B </c><c>   1</c></rc>
    <rc><c>B </c><c>   1</c></rc>
    <rc><c>B </c><c>   1</c></rc>
    <rc><c>B </c><c>   1</c></rc>
    <rc><c>B </c><c>   1</c></rc>
    <rc><c>B </c><c>   1</c></rc>
    <rc><c>B </c><c>   1</c></rc>
    <rc><c>B </c><c>   1</c></rc>
    <rc><c>B </c><c>   1</c></rc>
    <rc><c>B </c><c>   1</c></rc>
    <rc><c>B </c><c>   1</c></rc>
    <rc><c>B </c><c>   1</c></rc>
    <rc><c>B </c><c>   1</c></rc>
    <rc><c>B </c><c>   1</c></rc>
    <rc><c>B </c><c>   1</c></rc>
    <rc><c>B </c><c>   1</c></rc>
    <rc><c>B </c><c>   1</c></rc>
    <rc><c>B </c><c>   1</c></rc>
    <rc><c>B </c><c>   1</c></rc>
    <rc><c>B </c><c>   1</c></rc>
    <rc><c>B </c><c>   1</c></rc>
    <rc><c>B </c><c>   1</c></rc>
    <rc><c>B </c><c>   1</c></rc>
    <rc><c>B </c><c>   1</c></rc>
    <rc><c>B </c><c>   1</c></rc>
    <rc><c>B </c><c>   1</c></rc>
    <rc><c>B </c><c>   1</c></rc>
    <rc><c>B </c><c>   1</c></rc>
    <rc><c>B </c><c>   1</c></rc>
    <rc><c>B </c><c>   1</c></rc>
    <rc><c>B </c><c>   1</c></rc>
    <rc><c>B </c><c>   1</c></rc>
    <rc><c>B </c><c>   1</c></rc>
    <rc><c>B </c><c>   1</c></rc>
    <rc><c>B </c><c>   1</c></rc>
    <rc><c>B </c><c>   1</c></rc>
    <rc><c>B </c><c>   1</c></rc>
    <rc><c>B </c><c>   1</c></rc>
    <rc><c>B </c><c>   1</c></rc>
    <rc><c>B </c><c>   1</c></rc>
    <rc><c>B </c><c>   1</c></rc>
    <rc><c>B </c><c>   1</c></rc>
    <rc><c>B </c><c>   1</c></rc>
    <rc><c>N </c><c>   2</c></rc>
    <rc><c>N </c><c>   2</c></rc>
    <rc><c>N </c><c>   2</c></rc>
    <rc><c>N </c><c>   2</c></rc>
    <rc><c>N </c><c>   2</c></rc>
    <rc><c>N </c><c>   2</c></rc>
    <rc><c>N </c><c>   2</c></rc>
    <rc><c>N </c><c>   2</c></rc>
    <rc><c>N </c><c>   2</c></rc>
    <rc><c>N </c><c>   2</c></rc>
    <rc><c>N </c><c>   2</c></rc>
    <rc><c>N </c><c>   2</c></rc>
    <rc><c>N </c><c>   2</c></rc>
    <rc><c>N </c><c>   2</c></rc>
    <rc><c>N </c><c>   2</c></rc>
    <rc><c>N </c><c>   2</c></rc>
    <rc><c>N </c><c>   2</c></rc>
    <rc><c>N </c><c>   2</c></rc>
    <rc><c>N </c><c>   2</c></rc>
    <rc><c>N </c><c>   2</c></rc>
    <rc><c>N </c><c>   2</c></rc>
    <rc><c>N </c><c>   2</c></rc>
    <rc><c>N </c><c>   2</c></rc>
    <rc><c>N </c><c>   2</c></rc>
    <rc><c>N </c><c>   2</c></rc>
    <rc><c>N </c><c>   2</c></rc>
    <rc><c>N </c><c>   2</c></rc>
    <rc><c>N </c><c>   2</c></rc>
    <rc><c>N </c><c>   2</c></rc>
    <rc><c>N </c><c>   2</c></rc>
    <rc><c>N </c><c>   2</c></rc>
    <rc><c>N </c><c>   2</c></rc>
    <rc><c>N </c><c>   2</c></rc>
    <rc><c>N </c><c>   2</c></rc>
    <rc><c>N </c><c>   2</c></rc>
    <rc><c>N </c><c>   2</c></rc>
    <rc><c>N </c><c>   2</c></rc>
    <rc><c>N </c><c>   2</c></rc>
    <rc><c>N </c><c>   2</c></rc>
    <rc><c>N </c><c>   2</c></rc>
    <rc><c>N </c><c>   2</c></rc>
    <rc><c>N </c><c>   2</c></rc>
    <rc><c>N </c><c>   2</c></rc>
    <rc><c>N </c><c>   2</c></rc>
    <rc><c>N </c><c>   2</c></rc>
    <rc><c>N </c><c>   2</c></rc>
    <rc><c>N </c><c>   2</c></rc>
    <rc><c>N </c><c>   2</c></rc>
    <rc><c>C </c><c>   3</c></rc>
   </set>
  </array>
  <array name="atomtypes" >
   <dimension dim="1">type</dimension>
   <field type="int">atomspertype</field>
   <field type="string">element</field>
   <field>mass</field>
   <field>valence</field>
   <field type="string">pseudopotential</field>
   <set>
    <rc><c>  48</c><c>B </c><c>     10.81100000</c><c>      3.00000000</c><c>  PAW_PBE B 06Sep2000                   </c></rc>
    <rc><c>  48</c><c>N </c><c>     14.00100000</c><c>      5.00000000</c><c>  PAW_PBE N 08Apr2002                   </c></rc>
    <rc><c>   1</c><c>C </c><c>     12.01100000</c><c>      4.00000000</c><c>  PAW_PBE C 08Apr2002                   </c></rc>
   </set>
  </array>
 </atominfo>
 <structure name="initialpos" >
  <crystal>
   <varray name="basis" >
    <v>      17.59966831       0.00000000       0.00000000 </v>
    <v>      -8.79983416      15.24175986       0.00000000 </v>
    <v>       0.00000000       0.00000000      19.92151445 </v>
   </varray>
   <i name="volume">   5343.94461817 </i>
   <varray name="rec_basis" >
    <v>       0.05681925       0.03280461       0.00000000 </v>
    <v>       0.00000000       0.06560922       0.00000000 </v>
    <v>       0.00000000       0.00000000       0.05019699 </v>
   </varray>
  </crystal>
  <varray name="positions" >
   <v>       0.99943010       0.00005992       0.50000000 </v>
   <v>       0.14164706       0.99871895       0.50000000 </v>
   <v>       0.28492260       0.99841663       0.50000000 </v>
   <v>       0.42850047       0.99871895       0.50000000 </v>
   <v>       0.57205839       0.00005992       0.50000000 </v>
   <v>       0.71530655       0.00214292       0.50000000 </v>
   <v>       0.85826494       0.00214292       0.50000000 </v>
   <v>       0.00080792       0.14408264       0.50000000 </v>
   <v>       0.14259355       0.14244783       0.50000000 </v>
   <v>       0.28470221       0.14112972       0.50000000 </v>
   <v>       0.42785608       0.14112972       0.50000000 </v>
   <v>       0.57128286       0.14244783       0.50000000 </v>
   <v>       0.71470329       0.14408264       0.50000000 </v>
   <v>       0.85805263       0.14467669       0.50000000 </v>
   <v>       0.00095476       0.28713011       0.50000000 </v>
   <v>       0.14372552       0.28645370       0.50000000 </v>
   <v>       0.28540977       0.28469374       0.50000000 </v>
   <v>       0.42724431       0.28343624       0.50037619 </v>
   <v>       0.57071254       0.28469374       0.50000000 </v>
   <v>       0.71415674       0.28645370       0.50000000 </v>
   <v>       0.85760392       0.28713011       0.50000000 </v>
   <v>       0.00054479       0.42966101       0.50000000 </v>
   <v>       0.14422690       0.42957551       0.50000000 </v>
   <v>       0.28730213       0.42918005       0.50000000 </v>
   <v>       0.42797654       0.42569726       0.50000000 </v>
   <v>       0.56914930       0.42569726       0.50000000 </v>
   <v>       0.71330650       0.42918005       0.50000000 </v>
   <v>       0.85677719       0.42957551       0.50000000 </v>
   <v>       0.99928255       0.57181462       0.50000000 </v>
   <v>       0.14396064       0.57181462       0.50000000 </v>
   <v>       0.28862787       0.57181625       0.50000000 </v>
   <v>       0.43313209       0.57215564       0.50000000 </v>
   <v>       0.71045212       0.57215564       0.50000000 </v>
   <v>       0.85461695       0.57181625       0.50000000 </v>
   <v>       0.99707234       0.71370518       0.50000000 </v>
   <v>       0.14255519       0.71368182       0.50000000 </v>
   <v>       0.28806142       0.71370518       0.50000000 </v>
   <v>       0.43464191       0.71382540       0.50000000 </v>
   <v>       0.58510826       0.71626937       0.50000000 </v>
   <v>       0.70258968       0.71626937       0.50000000 </v>
   <v>       0.85061206       0.71382540       0.50000000 </v>
   <v>       0.99777175       0.85613493       0.50000000 </v>
   <v>       0.14160898       0.85591288       0.50000000 </v>
   <v>       0.28573247       0.85591288       0.50000000 </v>
   <v>       0.42979175       0.85613493       0.50000000 </v>
   <v>       0.57342541       0.85758690       0.50000000 </v>
   <v>       0.71640633       0.86138410       0.50000000 </v>
   <v>       0.85559006       0.85758690       0.50000000 </v>
   <v>       0.04754270       0.09547788       0.50000000 </v>
   <v>       0.18957833       0.09405657       0.50000000 </v>
   <v>       0.33254182       0.09365506       0.50000000 </v>
   <v>       0.47590681       0.09405657       0.50000000 </v>
   <v>       0.61936376       0.09547788       0.50000000 </v>
   <v>       0.76280004       0.09719274       0.50000000 </v>
   <v>       0.90582126       0.09719274       0.50000000 </v>
   <v>       0.04854983       0.23934281       0.50000000 </v>
   <v>       0.19048138       0.23782962       0.50000000 </v>
   <v>       0.33234878       0.23634667       0.50000000 </v>
   <v>       0.47542646       0.23634667       0.50000000 </v>
   <v>       0.61877681       0.23782962       0.50000000 </v>
   <v>       0.76222155       0.23934281       0.50000000 </v>
   <v>       0.90562797       0.23982737       0.50000000 </v>
   <v>       0.04871288       0.38232824       0.50000000 </v>
   <v>       0.19188940       0.38184213       0.50000000 </v>
   <v>       0.33352206       0.38013969       0.50000000 </v>
   <v>       0.47472270       0.37801683       0.50000000 </v>
   <v>       0.61804620       0.38013969       0.50000000 </v>
   <v>       0.76138130       0.38184213       0.50000000 </v>
   <v>       0.90504393       0.38232824       0.50000000 </v>
   <v>       0.04810654       0.52478452       0.50000000 </v>
   <v>       0.19263929       0.52476864       0.50000000 </v>
   <v>       0.33696521       0.52455433       0.50000000 </v>
   <v>       0.47833704       0.52146721       0.50000000 </v>
   <v>       0.61455874       0.52146721       0.50000000 </v>
   <v>       0.75901769       0.52455433       0.50000000 </v>
   <v>       0.90355792       0.52476864       0.50000000 </v>
   <v>       0.04642473       0.66685228       0.50000000 </v>
   <v>       0.19185612       0.66685228       0.50000000 </v>
   <v>       0.33777931       0.66688794       0.50000000 </v>
   <v>       0.48615700       0.66710760       0.50000000 </v>
   <v>       0.75237918       0.66710760       0.50000000 </v>
   <v>       0.90053720       0.66688794       0.50000000 </v>
   <v>       0.04582562       0.80879365       0.50000000 </v>
   <v>       0.19009580       0.80876303       0.50000000 </v>
   <v>       0.33439660       0.80879365       0.50000000 </v>
   <v>       0.47844872       0.80897069       0.50000000 </v>
   <v>       0.62209487       0.81129474       0.50000000 </v>
   <v>       0.76062845       0.81129474       0.50000000 </v>
   <v>       0.90195054       0.80897069       0.50000000 </v>
   <v>       0.04629157       0.95154386       0.50000000 </v>
   <v>       0.18948291       0.95113037       0.50000000 </v>
   <v>       0.33307603       0.95113037       0.50000000 </v>
   <v>       0.47668087       0.95154386       0.50000000 </v>
   <v>       0.62015751       0.95313740       0.50000000 </v>
   <v>       0.76355772       0.95568687       0.50000000 </v>
   <v>       0.90440847       0.95313740       0.50000000 </v>
   <v>       0.56830873       0.56518888       0.50000000 </v>
  </varray>
 </structure>
 <calculation>
  <scstep>
   <time name="dav">    2.36    2.38</time>
   <time name="total">    2.73    2.82</time>
   <energy>
    <i name="alphaZ">    156.50993408 </i>
    <i name="ewald">  58206.76929353 </i>
    <i name="hartreedc"> -70374.19193293 </i>
    <i name="XCdc">   1302.10876427 </i>
    <i name="pawpsdc">  12033.28670802 </i>
    <i name="pawaedc"> -12049.96799276 </i>
    <i name="eentropy">     -0.00000000 </i>
    <i name="bandstr">   -904.57440927 </i>
    <i name="atom">  16260.93880140 </i>
    <i name="e_fr_energy">   4630.87916634 </i>
    <i name="e_wo_entrp">   4630.87916634 </i>
    <i name="e_0_energy">   4630.87916634 </i>
   </energy>
  </scstep>
  <scstep>
   <time name="dav">    3.00    3.04</time>
   <time name="total">    3.00    3.04</time>
   <energy>
    <i name="e_fr_energy">    216.66749481 </i>
    <i name="e_wo_entrp">    216.66749481 </i>
    <i name="e_0_energy">    216.66749481 </i>
   </energy>
  </scstep>
  <scstep>
   <time name="dav">    2.47    2.50</time>
   <time name="total">    2.47    2.50</time>
   <energy>
    <i name="e_fr_energy">   -867.47084106 </i>
    <i name="e_wo_entrp">   -867.47084106 </i>
    <i name="e_0_energy">   -867.47084106 </i>
   </energy>
  </scstep>
  <scstep>
   <time name="dav">    2.47    2.51</time>
   <time name="total">    2.47    2.51</time>
   <energy>
    <i name="e_fr_energy">   -934.19506732 </i>
    <i name="e_wo_entrp">   -934.19506732 </i>
    <i name="e_0_energy">   -934.19506732 </i>
   </energy>
  </scstep>
  <scstep>
   <time name="dav">    2.50    2.53</time>
   <time name="total">    2.74    2.78</time>
   <energy>
    <i name="e_fr_energy">   -935.77593106 </i>
    <i name="e_wo_entrp">   -935.77593106 </i>
    <i name="e_0_energy">   -935.77593106 </i>
   </energy>
  </scstep>
  <scstep>
   <time name="dav">    2.33    2.35</time>
   <time name="total">    2.93    2.97</time>
   <energy>
    <i name="e_fr_energy">   -858.74258310 </i>
    <i name="e_wo_entrp">   -858.74258310 </i>
    <i name="e_0_energy">   -858.74258310 </i>
   </energy>
  </scstep>
  <scstep>
   <time name="dav">    2.37    2.43</time>
   <time name="total">    2.99    3.07</time>
   <energy>
    <i name="e_fr_energy">   -850.19221679 </i>
    <i name="e_wo_entrp">   -850.19221679 </i>
    <i name="e_0_energy">   -850.19221679 </i>
   </energy>
  </scstep>
  <scstep>
   <time name="dav">    2.28    2.30</time>
   <time name="total">    2.91    2.95</time>
   <energy>
    <i name="e_fr_energy">   -845.92487313 </i>
    <i name="e_wo_entrp">   -845.92487233 </i>
    <i name="e_0_energy">   -845.92487273 </i>
   </energy>
  </scstep>
  <scstep>
   <time name="dav">    2.32    2.34</time>
   <time name="total">    2.93    2.97</time>
   <energy>
    <i name="e_fr_energy">   -845.80083456 </i>
    <i name="e_wo_entrp">   -845.80083456 </i>
    <i name="e_0_energy">   -845.80083456 </i>
   </energy>
  </scstep>
  <scstep>
   <time name="dav">    2.38    2.40</time>
   <time name="total">    2.98    3.02</time>
   <energy>
    <i name="e_fr_energy">   -845.64020356 </i>
    <i name="e_wo_entrp">   -845.64020356 </i>
    <i name="e_0_energy">   -845.64020356 </i>
   </energy>
  </scstep>
  <scstep>
   <time name="dav">    2.25    2.27</time>
   <time name="total">    2.86    2.91</time>
   <energy>
    <i name="e_fr_energy">   -845.59126737 </i>
    <i name="e_wo_entrp">   -845.59126737 </i>
    <i name="e_0_energy">   -845.59126737 </i>
   </energy>
  </scstep>
  <scstep>
   <time name="dav">    2.29    2.31</time>
   <time name="total">    2.90    2.94</time>
   <energy>
    <i name="e_fr_energy">   -845.57728815 </i>
    <i name="e_wo_entrp">   -845.57728815 </i>
    <i name="e_0_energy">   -845.57728815 </i>
   </energy>
  </scstep>
  <scstep>
   <time name="dav">    2.23    2.25</time>
   <time name="total">    2.84    2.90</time>
   <energy>
    <i name="e_fr_energy">   -845.57620240 </i>
    <i name="e_wo_entrp">   -845.57620240 </i>
    <i name="e_0_energy">   -845.57620240 </i>
   </energy>
  </scstep>
  <scstep>
   <time name="dav">    2.23    2.25</time>
   <time name="total">    2.84    2.88</time>
   <energy>
    <i name="e_fr_energy">   -845.58171268 </i>
    <i name="e_wo_entrp">   -845.58171268 </i>
    <i name="e_0_energy">   -845.58171268 </i>
   </energy>
  </scstep>
  <scstep>
   <time name="dav">    2.25    2.27</time>
   <time name="total">    2.86    2.90</time>
   <energy>
    <i name="e_fr_energy">   -845.60579941 </i>
    <i name="e_wo_entrp">   -845.60579941 </i>
    <i name="e_0_energy">   -845.60579941 </i>
   </energy>
  </scstep>
  <scstep>
   <time name="dav">    2.17    2.19</time>
   <time name="total">    2.80    2.82</time>
   <energy>
    <i name="e_fr_energy">   -845.63065058 </i>
    <i name="e_wo_entrp">   -845.63065058 </i>
    <i name="e_0_energy">   -845.63065058 </i>
   </energy>
  </scstep>
  <scstep>
   <time name="dav">    2.24    2.26</time>
   <time name="total">    2.85    2.88</time>
   <energy>
    <i name="e_fr_energy">   -845.64432023 </i>
    <i name="e_wo_entrp">   -845.64432023 </i>
    <i name="e_0_energy">   -845.64432023 </i>
   </energy>
  </scstep>
  <scstep>
   <time name="dav">    2.25    2.27</time>
   <time name="total">    2.87    2.90</time>
   <energy>
    <i name="e_fr_energy">   -845.65002772 </i>
    <i name="e_wo_entrp">   -845.65002772 </i>
    <i name="e_0_energy">   -845.65002772 </i>
   </energy>
  </scstep>
  <scstep>
   <time name="dav">    2.24    2.26</time>
   <time name="total">    2.85    2.90</time>
   <energy>
    <i name="e_fr_energy">   -845.65213778 </i>
    <i name="e_wo_entrp">   -845.65213778 </i>
    <i name="e_0_energy">   -845.65213778 </i>
   </energy>
  </scstep>
  <scstep>
   <time name="dav">    2.25    2.27</time>
   <time name="total">    2.87    2.90</time>
   <energy>
    <i name="e_fr_energy">   -845.65280446 </i>
    <i name="e_wo_entrp">   -845.65280446 </i>
    <i name="e_0_energy">   -845.65280446 </i>
   </energy>
  </scstep>
  <scstep>
   <time name="dav">    2.25    2.27</time>
   <time name="total">    2.87    2.90</time>
   <energy>
    <i name="e_fr_energy">   -845.65311917 </i>
    <i name="e_wo_entrp">   -845.65311917 </i>
    <i name="e_0_energy">   -845.65311917 </i>
   </energy>
  </scstep>
  <scstep>
   <time name="dav">    2.20    2.22</time>
   <time name="total">    2.83    2.86</time>
   <energy>
    <i name="e_fr_energy">   -845.65330778 </i>
    <i name="e_wo_entrp">   -845.65330778 </i>
    <i name="e_0_energy">   -845.65330778 </i>
   </energy>
  </scstep>
  <scstep>
   <time name="dav">    2.20    2.22</time>
   <time name="total">    2.82    2.85</time>
   <energy>
    <i name="e_fr_energy">   -845.65342323 </i>
    <i name="e_wo_entrp">   -845.65342323 </i>
    <i name="e_0_energy">   -845.65342323 </i>
   </energy>
  </scstep>
  <scstep>
   <time name="dav">    2.20    2.22</time>
   <time name="total">    2.82    2.85</time>
   <energy>
    <i name="e_fr_energy">   -845.65349802 </i>
    <i name="e_wo_entrp">   -845.65349802 </i>
    <i name="e_0_energy">   -845.65349802 </i>
   </energy>
  </scstep>
  <scstep>
   <time name="dav">    2.30    2.32</time>
   <time name="total">    2.92    2.96</time>
   <energy>
    <i name="e_fr_energy">   -845.65352898 </i>
    <i name="e_wo_entrp">   -845.65352898 </i>
    <i name="e_0_energy">   -845.65352898 </i>
   </energy>
  </scstep>
  <scstep>
   <time name="dav">    2.21    2.23</time>
   <time name="total">    2.83    2.89</time>
   <energy>
    <i name="e_fr_energy">   -845.65354672 </i>
    <i name="e_wo_entrp">   -845.65354672 </i>
    <i name="e_0_energy">   -845.65354672 </i>
   </energy>
  </scstep>
  <scstep>
   <time name="dav">    2.30    2.32</time>
   <time name="total">    2.92    2.95</time>
   <energy>
    <i name="e_fr_energy">   -845.65355184 </i>
    <i name="e_wo_entrp">   -845.65355184 </i>
    <i name="e_0_energy">   -845.65355184 </i>
   </energy>
  </scstep>
  <scstep>
   <time name="dav">    1.96    1.98</time>
   <time name="total">    2.58    2.61</time>
   <energy>
    <i name="e_fr_energy">   -845.65355468 </i>
    <i name="e_wo_entrp">   -845.65355468 </i>
    <i name="e_0_energy">   -845.65355468 </i>
   </energy>
  </scstep>
  <scstep>
   <time name="dav">    1.96    1.98</time>
   <time name="total">    2.58    2.62</time>
   <energy>
    <i name="e_fr_energy">   -845.65355556 </i>
    <i name="e_wo_entrp">   -845.65355556 </i>
    <i name="e_0_energy">   -845.65355556 </i>
   </energy>
  </scstep>
  <scstep>
   <time name="dav">    1.70    1.71</time>
   <time name="total">    2.33    2.37</time>
   <energy>
    <i name="e_fr_energy">   -845.65355571 </i>
    <i name="e_wo_entrp">   -845.65355571 </i>
    <i name="e_0_energy">   -845.65355571 </i>
   </energy>
  </scstep>
  <scstep>
   <time name="dav">    1.69    1.70</time>
   <time name="total">    2.32    2.35</time>
   <energy>
    <i name="e_fr_energy">   -845.65355578 </i>
    <i name="e_wo_entrp">   -845.65355578 </i>
    <i name="e_0_energy">   -845.65355578 </i>
   </energy>
  </scstep>
  <scstep>
   <time name="dav">    1.79    1.81</time>
   <time name="total">    2.42    2.45</time>
   <energy>
    <i name="e_fr_energy">   -845.65355579 </i>
    <i name="e_wo_entrp">   -845.65355579 </i>
    <i name="e_0_energy">   -845.65355579 </i>
   </energy>
  </scstep>
  <scstep>
   <time name="dav">    1.72    1.73</time>
   <time name="total">    2.09    2.12</time>
   <energy>
    <i name="alphaZ">    156.50993408 </i>
    <i name="ewald">  58206.76929353 </i>
    <i name="hartreedc"> -72314.27721311 </i>
    <i name="XCdc">   1369.72388333 </i>
    <i name="pawpsdc">  44018.79027059 </i>
    <i name="pawaedc"> -44054.13212411 </i>
    <i name="eentropy">     -0.00000000 </i>
    <i name="bandstr">  -4489.97640151 </i>
    <i name="atom">  16260.93880140 </i>
    <i name="e_fr_energy">   -845.65355580 </i>
    <i name="e_wo_entrp">   -845.65355580 </i>
    <i name="e_0_energy">   -845.65355580 </i>
   </energy>
  </scstep>
  <structure>
   <crystal>
    <varray name="basis" >
     <v>      17.59966831       0.00000000       0.00000000 </v>
     <v>      -8.79983416      15.24175986       0.00000000 </v>
     <v>       0.00000000       0.00000000      19.92151445 </v>
    </varray>
    <i name="volume">   5343.94461817 </i>
    <varray name="rec_basis" >
     <v>       0.05681925       0.03280461       0.00000000 </v>
     <v>       0.00000000       0.06560922       0.00000000 </v>
     <v>       0.00000000       0.00000000       0.05019699 </v>
    </varray>
   </crystal>
   <varray name="positions" >
    <v>       0.99943010       0.00005992       0.50000000 </v>
    <v>       0.14164706       0.99871895       0.50000000 </v>
    <v>       0.28492260       0.99841663       0.50000000 </v>
    <v>       0.42850047       0.99871895       0.50000000 </v>
    <v>       0.57205839       0.00005992       0.50000000 </v>
    <v>       0.71530655       0.00214292       0.50000000 </v>
    <v>       0.85826494       0.00214292       0.50000000 </v>
    <v>       0.00080792       0.14408264       0.50000000 </v>
    <v>       0.14259355       0.14244783       0.50000000 </v>
    <v>       0.28470221       0.14112972       0.50000000 </v>
    <v>       0.42785608       0.14112972       0.50000000 </v>
    <v>       0.57128286       0.14244783       0.50000000 </v>
    <v>       0.71470329       0.14408264       0.50000000 </v>
    <v>       0.85805263       0.14467669       0.50000000 </v>
    <v>       0.00095476       0.28713011       0.50000000 </v>
    <v>       0.14372552       0.28645370       0.50000000 </v>
    <v>       0.28540977       0.28469374       0.50000000 </v>
    <v>       0.42724431       0.28343624       0.50037619 </v>
    <v>       0.57071254       0.28469374       0.50000000 </v>
    <v>       0.71415674       0.28645370       0.50000000 </v>
    <v>       0.85760392       0.28713011       0.50000000 </v>
    <v>       0.00054479       0.42966101       0.50000000 </v>
    <v>       0.14422690       0.42957551       0.50000000 </v>
    <v>       0.28730213       0.42918005       0.50000000 </v>
    <v>       0.42797654       0.42569726       0.50000000 </v>
    <v>       0.56914930       0.42569726       0.50000000 </v>
    <v>       0.71330650       0.42918005       0.50000000 </v>
    <v>       0.85677719       0.42957551       0.50000000 </v>
    <v>       0.99928255       0.57181462       0.50000000 </v>
    <v>       0.14396064       0.57181462       0.50000000 </v>
    <v>       0.28862787       0.57181625       0.50000000 </v>
    <v>       0.43313209       0.57215564       0.50000000 </v>
    <v>       0.71045212       0.57215564       0.50000000 </v>
    <v>       0.85461695       0.57181625       0.50000000 </v>
    <v>       0.99707234       0.71370518       0.50000000 </v>
    <v>       0.14255519       0.71368182       0.50000000 </v>
    <v>       0.28806142       0.71370518       0.50000000 </v>
    <v>       0.43464191       0.71382540       0.50000000 </v>
    <v>       0.58510826       0.71626937       0.50000000 </v>
    <v>       0.70258968       0.71626937       0.50000000 </v>
    <v>       0.85061206       0.71382540       0.50000000 </v>
    <v>       0.99777175       0.85613493       0.50000000 </v>
    <v>       0.14160898       0.85591288       0.50000000 </v>
    <v>       0.28573247       0.85591288       0.50000000 </v>
    <v>       0.42979175       0.85613493       0.50000000 </v>
    <v>       0.57342541       0.85758690       0.50000000 </v>
    <v>       0.71640633       0.86138410       0.50000000 </v>
    <v>       0.85559006       0.85758690       0.50000000 </v>
    <v>       0.04754270       0.09547788       0.50000000 </v>
    <v>       0.18957833       0.09405657       0.50000000 </v>
    <v>       0.33254182       0.09365506       0.50000000 </v>
    <v>       0.47590681       0.09405657       0.50000000 </v>
    <v>       0.61936376       0.09547788       0.50000000 </v>
    <v>       0.76280004       0.09719274       0.50000000 </v>
    <v>       0.90582126       0.09719274       0.50000000 </v>
    <v>       0.04854983       0.23934281       0.50000000 </v>
    <v>       0.19048138       0.23782962       0.50000000 </v>
    <v>       0.33234878       0.23634667       0.50000000 </v>
    <v>       0.47542646       0.23634667       0.50000000 </v>
    <v>       0.61877681       0.23782962       0.50000000 </v>
    <v>       0.76222155       0.23934281       0.50000000 </v>
    <v>       0.90562797       0.23982737       0.50000000 </v>
    <v>       0.04871288       0.38232824       0.50000000 </v>
    <v>       0.19188940       0.38184213       0.50000000 </v>
    <v>       0.33352206       0.38013969       0.50000000 </v>
    <v>       0.47472270       0.37801683       0.50000000 </v>
    <v>       0.61804620       0.38013969       0.50000000 </v>
    <v>       0.76138130       0.38184213       0.50000000 </v>
    <v>       0.90504393       0.38232824       0.50000000 </v>
    <v>       0.04810654       0.52478452       0.50000000 </v>
    <v>       0.19263929       0.52476864       0.50000000 </v>
    <v>       0.33696521       0.52455433       0.50000000 </v>
    <v>       0.47833704       0.52146721       0.50000000 </v>
    <v>       0.61455874       0.52146721       0.50000000 </v>
    <v>       0.75901769       0.52455433       0.50000000 </v>
    <v>       0.90355792       0.52476864       0.50000000 </v>
    <v>       0.04642473       0.66685228       0.50000000 </v>
    <v>       0.19185612       0.66685228       0.50000000 </v>
    <v>       0.33777931       0.66688794       0.50000000 </v>
    <v>       0.48615700       0.66710760       0.50000000 </v>
    <v>       0.75237918       0.66710760       0.50000000 </v>
    <v>       0.90053720       0.66688794       0.50000000 </v>
    <v>       0.04582562       0.80879365       0.50000000 </v>
    <v>       0.19009580       0.80876303       0.50000000 </v>
    <v>       0.33439660       0.80879365       0.50000000 </v>
    <v>       0.47844872       0.80897069       0.50000000 </v>
    <v>       0.62209487       0.81129474       0.50000000 </v>
    <v>       0.76062845       0.81129474       0.50000000 </v>
    <v>       0.90195054       0.80897069       0.50000000 </v>
    <v>       0.04629157       0.95154386       0.50000000 </v>
    <v>       0.18948291       0.95113037       0.50000000 </v>
    <v>       0.33307603       0.95113037       0.50000000 </v>
    <v>       0.47668087       0.95154386       0.50000000 </v>
    <v>       0.62015751       0.95313740       0.50000000 </v>
    <v>       0.76355772       0.95568687       0.50000000 </v>
    <v>       0.90440847       0.95313740       0.50000000 </v>
    <v>       0.56830873       0.56518888       0.50000000 </v>
   </varray>
  </structure>
  <varray name="forces" >
   <v>      -0.03923277      -0.02665824      -0.00001844 </v>
   <v>      -0.01994985      -0.01041808      -0.00047206 </v>
   <v>       0.00040325      -0.00872460       0.00007661 </v>
   <v>       0.02146966      -0.00548150      -0.00047385 </v>
   <v>       0.03837856      -0.02480884      -0.00001832 </v>
   <v>      -0.03453895      -0.04910080      -0.00001625 </v>
   <v>       0.03351185      -0.04951657      -0.00001625 </v>
   <v>      -0.00611314      -0.02742776      -0.00001571 </v>
   <v>      -0.02675450      -0.02624744       0.00007961 </v>
   <v>       0.00946940      -0.03314140       0.00015531 </v>
   <v>      -0.00164357      -0.00542767       0.00017703 </v>
   <v>       0.02320418      -0.02375427       0.00008149 </v>
   <v>       0.00397537      -0.02721795      -0.00001557 </v>
   <v>      -0.00085102      -0.04176842      -0.00001489 </v>
   <v>      -0.00934396      -0.02985773       0.00000925 </v>
   <v>       0.00482237      -0.04645004      -0.00048530 </v>
   <v>      -0.04004833      -0.01721347       0.00032455 </v>
   <v>       0.16648516      -0.38754488      -0.10537593 </v>
   <v>       0.01082338      -0.02363767       0.00042095 </v>
   <v>      -0.00871920      -0.04834141      -0.00048856 </v>
   <v>       0.00727023      -0.03020344       0.00000943 </v>
   <v>      -0.00082304       0.00712398      -0.00001506 </v>
   <v>      -0.02673096      -0.00062780      -0.00001691 </v>
   <v>       0.05312787      -0.13625168       0.00007895 </v>
   <v>      -0.13196171      -0.17869522      -0.00064049 </v>
   <v>       0.13980242      -0.19424493      -0.00056632 </v>
   <v>      -0.05640318      -0.13875498       0.00007793 </v>
   <v>       0.02469026      -0.00171345      -0.00001674 </v>
   <v>       0.01677147       0.02917965      -0.00001260 </v>
   <v>      -0.01774093       0.02959151      -0.00001253 </v>
   <v>      -0.08745150       0.12936214      -0.00001873 </v>
   <v>       0.04769127       0.39911461      -0.00035095 </v>
   <v>      -0.04596946       0.39786843      -0.00035229 </v>
   <v>       0.08668831       0.12840116      -0.00001851 </v>
   <v>      -0.00788728       0.02296676      -0.00001547 </v>
   <v>      -0.00013638       0.02882801      -0.00001254 </v>
   <v>       0.00764789       0.02378876      -0.00001548 </v>
   <v>       0.08530341       0.04459232       0.00002428 </v>
   <v>       1.36392261       1.25253000      -0.00066079 </v>
   <v>      -1.36364450       1.25224348      -0.00066080 </v>
   <v>      -0.08519315       0.04369362       0.00002437 </v>
   <v>      -0.04586179      -0.00745377       0.00000078 </v>
   <v>      -0.01235011      -0.00320153      -0.00001410 </v>
   <v>       0.01267773      -0.00202878      -0.00001408 </v>
   <v>       0.04593835      -0.00587050       0.00000093 </v>
   <v>       0.15022745       0.03753280       0.00004744 </v>
   <v>      -0.00012084      -0.25151071      -0.00000601 </v>
   <v>      -0.15052423       0.03670151       0.00004742 </v>
   <v>       0.02648077       0.03244870       0.00017181 </v>
   <v>       0.00938068       0.02706829      -0.00206507 </v>
   <v>      -0.00719788       0.02169367       0.00154586 </v>
   <v>      -0.00587290       0.01880163      -0.00207502 </v>
   <v>      -0.02366278       0.03071762       0.00017226 </v>
   <v>      -0.01125168       0.02669069       0.00000375 </v>
   <v>       0.01307212       0.02704141       0.00000389 </v>
   <v>       0.01682475       0.03622526       0.00014952 </v>
   <v>      -0.01100088       0.00651471      -0.00211071 </v>
   <v>      -0.01106648       0.08270373       0.03787522 </v>
   <v>      -0.11152542       0.12158907       0.03838399 </v>
   <v>       0.01748896       0.00471318      -0.00212297 </v>
   <v>      -0.01421047       0.03625926       0.00015000 </v>
   <v>       0.00095081       0.03156764       0.00000373 </v>
   <v>       0.01216426       0.02659837       0.00001236 </v>
   <v>       0.05051449       0.06050615       0.00002774 </v>
   <v>      -0.01216180      -0.19669686       0.00188431 </v>
   <v>      -0.02616370       0.24080324       0.03740074 </v>
   <v>       0.01346311      -0.18726359       0.00187566 </v>
   <v>      -0.04811562       0.06214095       0.00002812 </v>
   <v>      -0.01046563       0.02696258       0.00001208 </v>
   <v>       0.00042242       0.00901381       0.00001203 </v>
   <v>       0.02696004      -0.00751908       0.00001566 </v>
   <v>       0.19248583       0.11102072       0.00006265 </v>
   <v>       1.02336307      -1.56842505      -0.00355631 </v>
   <v>      -1.02736706      -1.56913839      -0.00355875 </v>
   <v>      -0.19219747       0.11347080       0.00006295 </v>
   <v>      -0.02612944      -0.00656093       0.00001557 </v>
   <v>       0.00952616      -0.03353349       0.00001252 </v>
   <v>      -0.00935768      -0.03391706       0.00001186 </v>
   <v>      -0.05780844      -0.06781283       0.00001217 </v>
   <v>      -0.26935320       0.00691066       0.00006749 </v>
   <v>       0.26894448       0.00758779       0.00006719 </v>
   <v>       0.05797812      -0.06676742       0.00001209 </v>
   <v>       0.03555633      -0.01364221       0.00001118 </v>
   <v>      -0.00035330      -0.01240933       0.00001505 </v>
   <v>      -0.03574221      -0.01461696       0.00001119 </v>
   <v>      -0.08432743      -0.01503922      -0.00000863 </v>
   <v>      -0.88547619       0.24216821       0.00027076 </v>
   <v>       0.88590199       0.24261931       0.00027090 </v>
   <v>       0.08455214      -0.01406265      -0.00000889 </v>
   <v>       0.03097551       0.01712031       0.00014588 </v>
   <v>       0.00804082      -0.00506649       0.00004756 </v>
   <v>      -0.01015425      -0.00650862       0.00004752 </v>
   <v>      -0.03044639       0.01492352       0.00014652 </v>
   <v>      -0.10938217       0.11772595      -0.00000913 </v>
   <v>       0.00053396       0.01539649      -0.00000956 </v>
   <v>       0.11050992       0.11865471      -0.00000897 </v>
   <v>       0.00039165      -0.11890146       0.00370944 </v>
  </varray>
  <varray name="stress" >
   <v>     -10.62651639       0.01230963       0.00037395 </v>
   <v>       0.01230963       3.05937427      -0.00087116 </v>
   <v>       0.00037395      -0.00087115      -0.42579691 </v>
  </varray>
  <energy>
   <i name="e_fr_energy">   -845.65355580 </i>
   <i name="e_wo_entrp">   -845.65355580 </i>
   <i name="e_0_energy">     -0.00000000 </i>
  </energy>
  <time name="totalsc">   98.41   99.82</time>
  <eigenvalues>
   <array>
    <dimension dim="1">band</dimension>
    <dimension dim="2">kpoint</dimension>
    <dimension dim="3">spin</dimension>
    <field>eigene</field>
    <field>occ</field>
    <set>
     <set comment="spin 1">
      <set comment="kpoint 1">
       <r>  -22.5480    1.0000 </r>
       <r>  -22.0188    1.0000 </r>
       <r>  -21.7733    1.0000 </r>
       <r>  -21.7416    1.0000 </r>
       <r>  -21.6957    1.0000 </r>
       <r>  -21.6540    1.0000 </r>
       <r>  -21.6172    1.0000 </r>
       <r>  -21.2370    1.0000 </r>
       <r>  -21.0711    1.0000 </r>
       <r>  -21.0065    1.0000 </r>
       <r>  -20.9676    1.0000 </r>
       <r>  -20.9260    1.0000 </r>
       <r>  -20.8757    1.0000 </r>
       <r>  -20.7444    1.0000 </r>
       <r>  -20.7025    1.0000 </r>
       <r>  -20.6661    1.0000 </r>
       <r>  -20.5933    1.0000 </r>
       <r>  -20.5671    1.0000 </r>
       <r>  -20.4302    1.0000 </r>
       <r>  -19.9831    1.0000 </r>
       <r>  -19.9261    1.0000 </r>
       <r>  -19.8118    1.0000 </r>
       <r>  -19.7621    1.0000 </r>
       <r>  -19.7362    1.0000 </r>
       <r>  -19.7316    1.0000 </r>
       <r>  -19.7051    1.0000 </r>
       <r>  -19.6973    1.0000 </r>
       <r>  -19.6437    1.0000 </r>
       <r>  -19.6390    1.0000 </r>
       <r>  -19.6284    1.0000 </r>
       <r>  -19.4913    1.0000 </r>
       <r>  -19.4060    1.0000 </r>
       <r>  -19.3639    1.0000 </r>
       <r>  -19.3558    1.0000 </r>
       <r>  -19.2898    1.0000 </r>
       <r>  -19.2399    1.0000 </r>
       <r>  -19.1089    1.0000 </r>
       <r>  -18.9988    1.0000 </r>
       <r>  -18.9340    1.0000 </r>
       <r>  -18.8718    1.0000 </r>
       <r>  -18.8517    1.0000 </r>
       <r>  -18.8359    1.0000 </r>
       <r>  -18.7666    1.0000 </r>
       <r>  -18.7492    1.0000 </r>
       <r>  -18.7265    1.0000 </r>
       <r>  -18.7135    1.0000 </r>
       <r>  -18.6933    1.0000 </r>
       <r>  -18.4454    1.0000 </r>
       <r>  -14.1447    1.0000 </r>
       <r>  -13.1873    1.0000 </r>
       <r>  -13.1600    1.0000 </r>
       <r>  -13.1098    1.0000 </r>
       <r>  -13.0991    1.0000 </r>
       <r>  -13.0785    1.0000 </r>
       <r>  -13.0157    1.0000 </r>
       <r>  -12.9588    1.0000 </r>
       <r>  -12.9508    1.0000 </r>
       <r>  -12.9350    1.0000 </r>
       <r>  -12.8056    1.0000 </r>
       <r>  -12.7694    1.0000 </r>
       <r>  -12.6004    1.0000 </r>
       <r>  -12.5043    1.0000 </r>
       <r>  -12.4838    1.0000 </r>
       <r>  -12.3775    1.0000 </r>
       <r>  -12.3089    1.0000 </r>
       <r>  -12.2986    1.0000 </r>
       <r>  -12.1754    1.0000 </r>
       <r>  -11.9020    1.0000 </r>
       <r>  -11.8856    1.0000 </r>
       <r>  -11.7676    1.0000 </r>
       <r>  -11.7647    1.0000 </r>
       <r>  -11.7481    1.0000 </r>
       <r>  -11.7400    1.0000 </r>
       <r>  -11.6943    1.0000 </r>
       <r>  -11.6573    1.0000 </r>
       <r>  -11.6317    1.0000 </r>
       <r>  -11.5414    1.0000 </r>
       <r>  -11.4225    1.0000 </r>
       <r>  -11.2008    1.0000 </r>
       <r>  -11.1241    1.0000 </r>
       <r>  -11.0836    1.0000 </r>
       <r>  -11.0571    1.0000 </r>
       <r>  -10.9665    1.0000 </r>
       <r>  -10.9117    1.0000 </r>
       <r>  -10.6854    1.0000 </r>
       <r>  -10.4616    1.0000 </r>
       <r>  -10.4311    1.0000 </r>
       <r>  -10.3495    1.0000 </r>
       <r>  -10.2546    1.0000 </r>
       <r>  -10.2059    1.0000 </r>
       <r>   -9.8929    1.0000 </r>
       <r>   -9.7697    1.0000 </r>
       <r>   -9.7666    1.0000 </r>
       <r>   -9.7257    1.0000 </r>
       <r>   -9.6747    1.0000 </r>
       <r>   -9.5866    1.0000 </r>
       <r>   -9.5416    1.0000 </r>
       <r>   -9.4974    1.0000 </r>
       <r>   -9.4615    1.0000 </r>
       <r>   -9.3558    1.0000 </r>
       <r>   -9.3456    1.0000 </r>
       <r>   -9.2886    1.0000 </r>
       <r>   -9.2619    1.0000 </r>
       <r>   -9.2613    1.0000 </r>
       <r>   -9.2523    1.0000 </r>
       <r>   -9.2380    1.0000 </r>
       <r>   -9.2233    1.0000 </r>
       <r>   -9.2205    1.0000 </r>
       <r>   -9.2069    1.0000 </r>
       <r>   -9.2018    1.0000 </r>
       <r>   -9.1971    1.0000 </r>
       <r>   -9.1954    1.0000 </r>
       <r>   -9.1548    1.0000 </r>
       <r>   -9.1359    1.0000 </r>
       <r>   -9.1110    1.0000 </r>
       <r>   -9.1092    1.0000 </r>
       <r>   -9.0988    1.0000 </r>
       <r>   -9.0448    1.0000 </r>
       <r>   -8.9926    1.0000 </r>
       <r>   -8.8441    1.0000 </r>
       <r>   -8.7952    1.0000 </r>
       <r>   -8.6538    1.0000 </r>
       <r>   -8.5049    1.0000 </r>
       <r>   -8.4813    1.0000 </r>
       <r>   -8.4413    1.0000 </r>
       <r>   -8.3278    1.0000 </r>
       <r>   -8.2240    1.0000 </r>
       <r>   -8.2017    1.0000 </r>
       <r>   -8.1983    1.0000 </r>
       <r>   -8.1698    1.0000 </r>
       <r>   -8.1518    1.0000 </r>
       <r>   -8.1221    1.0000 </r>
       <r>   -8.0379    1.0000 </r>
       <r>   -7.9706    1.0000 </r>
       <r>   -7.9556    1.0000 </r>
       <r>   -7.8697    1.0000 </r>
       <r>   -7.8471    1.0000 </r>
       <r>   -7.8449    1.0000 </r>
       <r>   -7.8010    1.0000 </r>
       <r>   -7.7990    1.0000 </r>
       <r>   -7.7978    1.0000 </r>
       <r>   -7.7374    1.0000 </r>
       <r>   -7.7360    1.0000 </r>
       <r>   -7.7136    1.0000 </r>
       <r>   -7.6767    1.0000 </r>
       <r>   -7.6753    1.0000 </r>
       <r>   -7.6659    1.0000 </r>
       <r>   -7.6370    1.0000 </r>
       <r>   -7.6311    1.0000 </r>
       <r>   -7.4434    1.0000 </r>
       <r>   -7.4376    1.0000 </r>
       <r>   -7.4233    1.0000 </r>
       <r>   -7.3839    1.0000 </r>
       <r>   -7.3578    1.0000 </r>
       <r>   -7.2731    1.0000 </r>
       <r>   -6.8317    1.0000 </r>
       <r>   -6.7617    1.0000 </r>
       <r>   -6.6197    1.0000 </r>
       <r>   -6.6082    1.0000 </r>
       <r>   -6.5440    1.0000 </r>
       <r>   -6.5383    1.0000 </r>
       <r>   -6.5027    1.0000 </r>
       <r>   -6.4943    1.0000 </r>
       <r>   -6.4570    1.0000 </r>
       <r>   -6.4551    1.0000 </r>
       <r>   -6.4398    1.0000 </r>
       <r>   -6.4362    1.0000 </r>
       <r>   -6.4085    1.0000 </r>
       <r>   -6.4034    1.0000 </r>
       <r>   -6.3594    1.0000 </r>
       <r>   -6.3455    1.0000 </r>
       <r>   -6.3173    1.0000 </r>
       <r>   -6.1087    1.0000 </r>
       <r>   -5.9677    1.0000 </r>
       <r>   -5.9256    1.0000 </r>
       <r>   -5.8860    1.0000 </r>
       <r>   -5.8783    1.0000 </r>
       <r>   -5.8613    1.0000 </r>
       <r>   -5.7812    1.0000 </r>
       <r>   -5.7799    1.0000 </r>
       <r>   -5.5288    1.0000 </r>
       <r>   -5.2216    1.0000 </r>
       <r>   -5.2002    1.0000 </r>
       <r>   -5.1983    1.0000 </r>
       <r>   -5.1401    1.0000 </r>
       <r>   -5.1314    1.0000 </r>
       <r>   -5.1023    1.0000 </r>
       <r>   -5.0002    1.0000 </r>
       <r>   -4.9429    1.0000 </r>
       <r>   -4.9169    1.0000 </r>
       <r>   -4.9053    1.0000 </r>
       <r>   -4.8995    1.0000 </r>
       <r>   -4.7322    1.0000 </r>
       <r>   -1.3194    1.0000 </r>
       <r>   -1.2060    0.0000 </r>
       <r>    0.0552    0.0000 </r>
       <r>    0.2049    0.0000 </r>
       <r>    0.2379    0.0000 </r>
       <r>    0.2610    0.0000 </r>
       <r>    0.2618    0.0000 </r>
       <r>    0.3035    0.0000 </r>
       <r>    0.3058    0.0000 </r>
       <r>    0.3778    0.0000 </r>
       <r>    0.3944    0.0000 </r>
       <r>    0.4341    0.0000 </r>
       <r>    0.4800    0.0000 </r>
       <r>    0.5283    0.0000 </r>
       <r>    0.6094    0.0000 </r>
       <r>    0.7474    0.0000 </r>
       <r>    0.7488    0.0000 </r>
       <r>    0.7773    0.0000 </r>
       <r>    0.8059    0.0000 </r>
       <r>    0.8128    0.0000 </r>
       <r>    0.8277    0.0000 </r>
       <r>    0.8385    0.0000 </r>
       <r>    0.8590    0.0000 </r>
       <r>    0.8706    0.0000 </r>
       <r>    0.9806    0.0000 </r>
       <r>    1.0196    0.0000 </r>
       <r>    1.0599    0.0000 </r>
       <r>    1.1188    0.0000 </r>
       <r>    1.4953    0.0000 </r>
       <r>    1.6726    0.0000 </r>
       <r>    1.6971    0.0000 </r>
       <r>    1.7069    0.0000 </r>
       <r>    1.7240    0.0000 </r>
       <r>    1.7401    0.0000 </r>
       <r>    1.7443    0.0000 </r>
       <r>    1.8041    0.0000 </r>
       <r>    1.8061    0.0000 </r>
       <r>    1.8466    0.0000 </r>
       <r>    1.8473    0.0000 </r>
       <r>    1.8798    0.0000 </r>
       <r>    1.8822    0.0000 </r>
       <r>    1.9067    0.0000 </r>
       <r>    1.9083    0.0000 </r>
       <r>    1.9288    0.0000 </r>
       <r>    1.9836    0.0000 </r>
       <r>    2.0297    0.0000 </r>
       <r>    2.1028    0.0000 </r>
       <r>    2.1069    0.0000 </r>
       <r>    2.1293    0.0000 </r>
       <r>    2.1350    0.0000 </r>
       <r>    2.1352    0.0000 </r>
      </set>
     </set>
    </set>
   </array>
  </eigenvalues>
  <separator name="orbital magnetization" >
   <v name="MAGDIPOLOUT">      0.00000000      0.00000000      0.00000000</v>
  </separator>
  <dos>
   <i name="efermi">     -1.25772627 </i>
   <total>
    <array>
     <dimension dim="1">gridpoints</dimension>
     <dimension dim="2">spin</dimension>
     <field>energy</field>
     <field>total</field>
     <field>integrated</field>
     <set>
      <set comment="spin 1">
       <r>   -23.7822     0.0000     0.0000 </r>
       <r>   -23.6916     0.0000     0.0000 </r>
       <r>   -23.6011     0.0000     0.0000 </r>
       <r>   -23.5106     0.0000     0.0000 </r>
       <r>   -23.4201     0.0000     0.0000 </r>
       <r>   -23.3296     0.0000     0.0000 </r>
       <r>   -23.2391     0.0000     0.0000 </r>
       <r>   -23.1486     0.0000     0.0000 </r>
       <r>   -23.0581     0.0000     0.0000 </r>
       <r>   -22.9676     0.0000     0.0000 </r>
       <r>   -22.8771     0.0000     0.0000 </r>
       <r>   -22.7866     0.0000     0.0000 </r>
       <r>   -22.6961     0.0000     0.0000 </r>
       <r>   -22.6056     0.0000     0.0000 </r>
       <r>   -22.5151    22.0982     2.0000 </r>
       <r>   -22.4246     0.0000     2.0000 </r>
       <r>   -22.3341     0.0000     2.0000 </r>
       <r>   -22.2436     0.0000     2.0000 </r>
       <r>   -22.1531     0.0000     2.0000 </r>
       <r>   -22.0626     0.0000     2.0000 </r>
       <r>   -21.9721    22.0982     4.0000 </r>
       <r>   -21.8815     0.0000     4.0000 </r>
       <r>   -21.7910     0.1361     4.0123 </r>
       <r>   -21.7005    49.5524     8.4971 </r>
       <r>   -21.6100    40.7743    13.6903 </r>
       <r>   -21.5195     0.0000    14.0000 </r>
       <r>   -21.4290     0.0000    14.0000 </r>
       <r>   -21.3385     0.0000    14.0000 </r>
       <r>   -21.2480     1.3177    14.1193 </r>
       <r>   -21.1575    20.7805    16.0000 </r>
       <r>   -21.0670    15.8869    17.4378 </r>
       <r>   -20.9765    24.4006    20.2084 </r>
       <r>   -20.8860    23.7075    24.1456 </r>
       <r>   -20.7955     0.0000    26.0000 </r>
       <r>   -20.7050    30.0599    28.7206 </r>
       <r>   -20.6145    22.1285    32.0027 </r>
       <r>   -20.5240    44.1662    36.0000 </r>
       <r>   -20.4335     7.1230    36.6447 </r>
       <r>   -20.3430     0.0000    38.0000 </r>
       <r>   -20.2525     0.0000    38.0000 </r>
       <r>   -20.1620     0.0000    38.0000 </r>
       <r>   -20.0714     0.0000    38.0000 </r>
       <r>   -19.9809    13.6962    39.2396 </r>
       <r>   -19.8904    22.0982    42.0000 </r>
       <r>   -19.7999    21.0734    43.9072 </r>
       <r>   -19.7094    73.2029    50.6252 </r>
       <r>   -19.6189    85.3800    59.8140 </r>
       <r>   -19.5284     0.0000    60.0000 </r>
       <r>   -19.4379    22.0983    62.0000 </r>
       <r>   -19.3474    63.4743    67.7447 </r>
       <r>   -19.2569    22.2772    70.0162 </r>
       <r>   -19.1664    21.9192    72.0000 </r>
       <r>   -19.0759    22.0982    74.0000 </r>
       <r>   -18.9854    21.4535    75.9417 </r>
       <r>   -18.8949    22.1106    78.0011 </r>
       <r>   -18.8044    66.2822    84.0000 </r>
       <r>   -18.7139    76.1104    90.8884 </r>
       <r>   -18.6234    22.0590    94.0000 </r>
       <r>   -18.5329     0.0000    94.0000 </r>
       <r>   -18.4424    14.7087    95.3312 </r>
       <r>   -18.3519     0.0000    96.0000 </r>
       <r>   -18.2613     0.0000    96.0000 </r>
       <r>   -18.1708     0.0000    96.0000 </r>
       <r>   -18.0803     0.0000    96.0000 </r>
       <r>   -17.9898     0.0000    96.0000 </r>
       <r>   -17.8993     0.0000    96.0000 </r>
       <r>   -17.8088     0.0000    96.0000 </r>
       <r>   -17.7183     0.0000    96.0000 </r>
       <r>   -17.6278     0.0000    96.0000 </r>
       <r>   -17.5373     0.0000    96.0000 </r>
       <r>   -17.4468     0.0000    96.0000 </r>
       <r>   -17.3563     0.0000    96.0000 </r>
       <r>   -17.2658     0.0000    96.0000 </r>
       <r>   -17.1753     0.0000    96.0000 </r>
       <r>   -17.0848     0.0000    96.0000 </r>
       <r>   -16.9943     0.0000    96.0000 </r>
       <r>   -16.9038     0.0000    96.0000 </r>
       <r>   -16.8133     0.0000    96.0000 </r>
       <r>   -16.7228     0.0000    96.0000 </r>
       <r>   -16.6323     0.0000    96.0000 </r>
       <r>   -16.5418     0.0000    96.0000 </r>
       <r>   -16.4512     0.0000    96.0000 </r>
       <r>   -16.3607     0.0000    96.0000 </r>
       <r>   -16.2702     0.0000    96.0000 </r>
       <r>   -16.1797     0.0000    96.0000 </r>
       <r>   -16.0892     0.0000    96.0000 </r>
       <r>   -15.9987     0.0000    96.0000 </r>
       <r>   -15.9082     0.0000    96.0000 </r>
       <r>   -15.8177     0.0000    96.0000 </r>
       <r>   -15.7272     0.0000    96.0000 </r>
       <r>   -15.6367     0.0000    96.0000 </r>
       <r>   -15.5462     0.0000    96.0000 </r>
       <r>   -15.4557     0.0000    96.0000 </r>
       <r>   -15.3652     0.0000    96.0000 </r>
       <r>   -15.2747     0.0000    96.0000 </r>
       <r>   -15.1842     0.0000    96.0000 </r>
       <r>   -15.0937     0.0000    96.0000 </r>
       <r>   -15.0032     0.0000    96.0000 </r>
       <r>   -14.9127     0.0000    96.0000 </r>
       <r>   -14.8222     0.0000    96.0000 </r>
       <r>   -14.7317     0.0000    96.0000 </r>
       <r>   -14.6411     0.0000    96.0000 </r>
       <r>   -14.5506     0.0000    96.0000 </r>
       <r>   -14.4601     0.0000    96.0000 </r>
       <r>   -14.3696     0.0000    96.0000 </r>
       <r>   -14.2791     0.0000    96.0000 </r>
       <r>   -14.1886     0.0000    96.0000 </r>
       <r>   -14.0981    22.0982    98.0000 </r>
       <r>   -14.0076     0.0000    98.0000 </r>
       <r>   -13.9171     0.0000    98.0000 </r>
       <r>   -13.8266     0.0000    98.0000 </r>
       <r>   -13.7361     0.0000    98.0000 </r>
       <r>   -13.6456     0.0000    98.0000 </r>
       <r>   -13.5551     0.0000    98.0000 </r>
       <r>   -13.4646     0.0000    98.0000 </r>
       <r>   -13.3741     0.0000    98.0000 </r>
       <r>   -13.2836     0.0000    98.0000 </r>
       <r>   -13.1931     4.6072    98.4170 </r>
       <r>   -13.1026    47.6958   104.3167 </r>
       <r>   -13.0121    37.5353   109.3978 </r>
       <r>   -12.9216    65.6552   115.9421 </r>
       <r>   -12.8311     0.0036   116.0003 </r>
       <r>   -12.7405    44.1924   120.0000 </r>
       <r>   -12.6500     0.0000   120.0000 </r>
       <r>   -12.5595    22.0982   122.0000 </r>
       <r>   -12.4690    43.7860   125.9628 </r>
       <r>   -12.3785     9.7214   126.8798 </r>
       <r>   -12.2880    42.6912   131.8638 </r>
       <r>   -12.1975     0.0198   132.0018 </r>
       <r>   -12.1070    22.0784   134.0000 </r>
       <r>   -12.0165     0.0000   134.0000 </r>
       <r>   -11.9260     0.0076   134.0007 </r>
       <r>   -11.8355    44.1889   138.0000 </r>
       <r>   -11.7450    64.2135   143.8116 </r>
       <r>   -11.6545    36.5743   149.3102 </r>
       <r>   -11.5640    22.0993   152.0014 </r>
       <r>   -11.4735    22.0831   154.0000 </r>
       <r>   -11.3830    22.0982   156.0000 </r>
       <r>   -11.2925     0.0000   156.0000 </r>
       <r>   -11.2020     9.5895   156.8679 </r>
       <r>   -11.1115    21.2836   159.9263 </r>
       <r>   -11.0210    44.1955   164.0000 </r>
       <r>   -10.9304    22.1887   166.0082 </r>
       <r>   -10.8399    22.0077   168.0000 </r>
       <r>   -10.7494     0.0000   168.0000 </r>
       <r>   -10.6589    22.0962   169.9998 </r>
       <r>   -10.5684     0.0000   170.0000 </r>
       <r>   -10.4779     0.2323   170.0210 </r>
       <r>   -10.3874    43.9642   174.0000 </r>
       <r>   -10.2969    22.0982   176.0000 </r>
       <r>   -10.2064    32.5281   178.9440 </r>
       <r>   -10.1159     0.0000   180.0000 </r>
       <r>   -10.0254     0.0000   180.0000 </r>
       <r>    -9.9349     0.0000   180.0000 </r>
       <r>    -9.8444    22.0982   182.0000 </r>
       <r>    -9.7539    43.1230   185.9028 </r>
       <r>    -9.6634    42.9778   189.8898 </r>
       <r>    -9.5729    21.5221   191.9479 </r>
       <r>    -9.4824    43.8647   195.9700 </r>
       <r>    -9.3919    22.0630   198.0000 </r>
       <r>    -9.3014    44.9789   202.0708 </r>
       <r>    -9.2109   160.5464   216.6011 </r>
       <r>    -9.1203    90.5706   228.2782 </r>
       <r>    -9.0298    64.6134   235.9655 </r>
       <r>    -8.9393    22.0982   238.0000 </r>
       <r>    -8.8488     5.5421   238.5016 </r>
       <r>    -8.7583    22.0982   242.0000 </r>
       <r>    -8.6678     0.5175   242.0468 </r>
       <r>    -8.5773    21.5807   244.0000 </r>
       <r>    -8.4868    26.7898   246.4246 </r>
       <r>    -8.3963    22.0982   250.0000 </r>
       <r>    -8.3058    22.0777   251.9981 </r>
       <r>    -8.2153    20.4989   253.8553 </r>
       <r>    -8.1248    95.3474   262.7004 </r>
       <r>    -8.0343    15.3457   265.3889 </r>
       <r>    -7.9438    43.1481   269.9051 </r>
       <r>    -7.8533    28.7250   272.5998 </r>
       <r>    -7.7628    66.3001   282.0005 </r>
       <r>    -7.6723   101.3857   291.1764 </r>
       <r>    -7.5818    44.1965   298.0000 </r>
       <r>    -7.4913     0.0000   298.0000 </r>
       <r>    -7.4008    66.4673   304.0156 </r>
       <r>    -7.3102    44.0079   308.0000 </r>
       <r>    -7.2197    22.0982   310.0000 </r>
       <r>    -7.1292     0.0000   310.0000 </r>
       <r>    -7.0387     0.0000   310.0000 </r>
       <r>    -6.9482     0.0000   310.0000 </r>
       <r>    -6.8577     0.0025   310.0002 </r>
       <r>    -6.7672    26.9121   312.4359 </r>
       <r>    -6.6767     0.0000   314.0000 </r>
       <r>    -6.5862    44.1754   317.9981 </r>
       <r>    -6.4957    72.0888   324.5244 </r>
       <r>    -6.4052   112.2652   336.1606 </r>
       <r>    -6.3147    58.4712   343.2919 </r>
       <r>    -6.2242     0.0000   344.0000 </r>
       <r>    -6.1337     0.0046   344.0004 </r>
       <r>    -6.0432    22.0936   346.0000 </r>
       <r>    -5.9527    21.7239   347.9661 </r>
       <r>    -5.8622    76.0549   354.8835 </r>
       <r>    -5.7717    39.5885   359.5830 </r>
       <r>    -5.6812     0.0000   360.0000 </r>
       <r>    -5.5907     0.0000   360.0000 </r>
       <r>    -5.5001    22.0977   362.0000 </r>
       <r>    -5.4096     0.0000   362.0000 </r>
       <r>    -5.3191     0.0000   362.0000 </r>
       <r>    -5.2286     3.5570   362.3219 </r>
       <r>    -5.1381    61.3910   369.5563 </r>
       <r>    -5.0476    22.0982   374.0000 </r>
       <r>    -4.9571    22.5817   376.0438 </r>
       <r>    -4.8666    87.9094   384.0000 </r>
       <r>    -4.7761     0.0000   384.0000 </r>
       <r>    -4.6856    22.0982   386.0000 </r>
       <r>    -4.5951     0.0000   386.0000 </r>
       <r>    -4.5046     0.0000   386.0000 </r>
       <r>    -4.4141     0.0000   386.0000 </r>
       <r>    -4.3236     0.0000   386.0000 </r>
       <r>    -4.2331     0.0000   386.0000 </r>
       <r>    -4.1426     0.0000   386.0000 </r>
       <r>    -4.0521     0.0000   386.0000 </r>
       <r>    -3.9616     0.0000   386.0000 </r>
       <r>    -3.8711     0.0000   386.0000 </r>
       <r>    -3.7806     0.0000   386.0000 </r>
       <r>    -3.6900     0.0000   386.0000 </r>
       <r>    -3.5995     0.0000   386.0000 </r>
       <r>    -3.5090     0.0000   386.0000 </r>
       <r>    -3.4185     0.0000   386.0000 </r>
       <r>    -3.3280     0.0000   386.0000 </r>
       <r>    -3.2375     0.0000   386.0000 </r>
       <r>    -3.1470     0.0000   386.0000 </r>
       <r>    -3.0565     0.0000   386.0000 </r>
       <r>    -2.9660     0.0000   386.0000 </r>
       <r>    -2.8755     0.0000   386.0000 </r>
       <r>    -2.7850     0.0000   386.0000 </r>
       <r>    -2.6945     0.0000   386.0000 </r>
       <r>    -2.6040     0.0000   386.0000 </r>
       <r>    -2.5135     0.0000   386.0000 </r>
       <r>    -2.4230     0.0000   386.0000 </r>
       <r>    -2.3325     0.0000   386.0000 </r>
       <r>    -2.2420     0.0000   386.0000 </r>
       <r>    -2.1515     0.0000   386.0000 </r>
       <r>    -2.0610     0.0000   386.0000 </r>
       <r>    -1.9705     0.0000   386.0000 </r>
       <r>    -1.8799     0.0000   386.0000 </r>
       <r>    -1.7894     0.0000   386.0000 </r>
       <r>    -1.6989     0.0000   386.0000 </r>
       <r>    -1.6084     0.0000   386.0000 </r>
       <r>    -1.5179     0.0000   386.0000 </r>
       <r>    -1.4274     0.0000   386.0000 </r>
       <r>    -1.3369     0.1437   386.0130 </r>
       <r>    -1.2464    21.9546   388.0000 </r>
       <r>    -1.1559    22.0982   390.0000 </r>
       <r>    -1.0654     0.0000   390.0000 </r>
       <r>    -0.9749     0.0000   390.0000 </r>
       <r>    -0.8844     0.0000   390.0000 </r>
       <r>    -0.7939     0.0000   390.0000 </r>
       <r>    -0.7034     0.0000   390.0000 </r>
       <r>    -0.6129     0.0000   390.0000 </r>
       <r>    -0.5224     0.0000   390.0000 </r>
       <r>    -0.4319     0.0000   390.0000 </r>
       <r>    -0.3414     0.0000   390.0000 </r>
       <r>    -0.2509     0.0000   390.0000 </r>
       <r>    -0.1604     0.0000   390.0000 </r>
       <r>    -0.0698     0.0000   390.0000 </r>
       <r>     0.0207     0.0000   390.0000 </r>
       <r>     0.1112    22.0982   392.0000 </r>
       <r>     0.2017     7.1532   392.6474 </r>
       <r>     0.2922    68.0808   400.1617 </r>
       <r>     0.3827    60.1436   405.6050 </r>
       <r>     0.4732    46.8473   410.3368 </r>
       <r>     0.5637    22.0982   414.0000 </r>
       <r>     0.6542    22.0982   416.0000 </r>
       <r>     0.7447    13.8936   417.2574 </r>
       <r>     0.8352    92.2447   428.3486 </r>
       <r>     0.9257    44.1879   434.0000 </r>
       <r>     1.0162    29.1228   436.6358 </r>
       <r>     1.1067    23.0786   440.0887 </r>
       <r>     1.1972    21.1178   442.0000 </r>
       <r>     1.2877     0.0000   442.0000 </r>
       <r>     1.3782     0.0000   442.0000 </r>
       <r>     1.4687     0.0019   442.0002 </r>
       <r>     1.5592    22.0963   444.0000 </r>
       <r>     1.6497     0.0135   444.0012 </r>
       <r>     1.7403   105.6177   453.5602 </r>
       <r>     1.8308    44.6776   460.0435 </r>
       <r>     1.9213   134.0626   472.1775 </r>
       <r>     2.0118    22.2196   476.0110 </r>
       <r>     2.1023    38.0797   479.4575 </r>
       <r>     2.1928    66.2932   488.0000 </r>
       <r>     2.2833     0.0000   488.0000 </r>
       <r>     2.3738     0.0000   488.0000 </r>
       <r>     2.4643     0.0000   488.0000 </r>
       <r>     2.5548     0.0000   488.0000 </r>
       <r>     2.6453     0.0000   488.0000 </r>
       <r>     2.7358     0.0000   488.0000 </r>
       <r>     2.8263     0.0000   488.0000 </r>
       <r>     2.9168     0.0000   488.0000 </r>
       <r>     3.0073     0.0000   488.0000 </r>
       <r>     3.0978     0.0000   488.0000 </r>
       <r>     3.1883     0.0000   488.0000 </r>
       <r>     3.2788     0.0000   488.0000 </r>
       <r>     3.3693     0.0000   488.0000 </r>
      </set>
     </set>
    </array>
   </total>
  </dos>
 </calculation>
 <structure name="finalpos" >
  <crystal>
   <varray name="basis" >
    <v>      17.59966831       0.00000000       0.00000000 </v>
    <v>      -8.79983416      15.24175986       0.00000000 </v>
    <v>       0.00000000       0.00000000      19.92151445 </v>
   </varray>
   <i name="volume">   5343.94461817 </i>
   <varray name="rec_basis" >
    <v>       0.05681925       0.03280461       0.00000000 </v>
    <v>       0.00000000       0.06560922       0.00000000 </v>
    <v>       0.00000000       0.00000000       0.05019699 </v>
   </varray>
  </crystal>
  <varray name="positions" >
   <v>       0.99943010       0.00005992       0.50000000 </v>
   <v>       0.14164706       0.99871895       0.50000000 </v>
   <v>       0.28492260       0.99841663       0.50000000 </v>
   <v>       0.42850047       0.99871895       0.50000000 </v>
   <v>       0.57205839       0.00005992       0.50000000 </v>
   <v>       0.71530655       0.00214292       0.50000000 </v>
   <v>       0.85826494       0.00214292       0.50000000 </v>
   <v>       0.00080792       0.14408264       0.50000000 </v>
   <v>       0.14259355       0.14244783       0.50000000 </v>
   <v>       0.28470221       0.14112972       0.50000000 </v>
   <v>       0.42785608       0.14112972       0.50000000 </v>
   <v>       0.57128286       0.14244783       0.50000000 </v>
   <v>       0.71470329       0.14408264       0.50000000 </v>
   <v>       0.85805263       0.14467669       0.50000000 </v>
   <v>       0.00095476       0.28713011       0.50000000 </v>
   <v>       0.14372552       0.28645370       0.50000000 </v>
   <v>       0.28540977       0.28469374       0.50000000 </v>
   <v>       0.42724431       0.28343624       0.50037619 </v>
   <v>       0.57071254       0.28469374       0.50000000 </v>
   <v>       0.71415674       0.28645370       0.50000000 </v>
   <v>       0.85760392       0.28713011       0.50000000 </v>
   <v>       0.00054479       0.42966101       0.50000000 </v>
   <v>       0.14422690       0.42957551       0.50000000 </v>
   <v>       0.28730213       0.42918005       0.50000000 </v>
   <v>       0.42797654       0.42569726       0.50000000 </v>
   <v>       0.56914930       0.42569726       0.50000000 </v>
   <v>       0.71330650       0.42918005       0.50000000 </v>
   <v>       0.85677719       0.42957551       0.50000000 </v>
   <v>       0.99928255       0.57181462       0.50000000 </v>
   <v>       0.14396064       0.57181462       0.50000000 </v>
   <v>       0.28862787       0.57181625       0.50000000 </v>
   <v>       0.43313209       0.57215564       0.50000000 </v>
   <v>       0.71045212       0.57215564       0.50000000 </v>
   <v>       0.85461695       0.57181625       0.50000000 </v>
   <v>       0.99707234       0.71370518       0.50000000 </v>
   <v>       0.14255519       0.71368182       0.50000000 </v>
   <v>       0.28806142       0.71370518       0.50000000 </v>
   <v>       0.43464191       0.71382540       0.50000000 </v>
   <v>       0.58510826       0.71626937       0.50000000 </v>
   <v>       0.70258968       0.71626937       0.50000000 </v>
   <v>       0.85061206       0.71382540       0.50000000 </v>
   <v>       0.99777175       0.85613493       0.50000000 </v>
   <v>       0.14160898       0.85591288       0.50000000 </v>
   <v>       0.28573247       0.85591288       0.50000000 </v>
   <v>       0.42979175       0.85613493       0.50000000 </v>
   <v>       0.57342541       0.85758690       0.50000000 </v>
   <v>       0.71640633       0.86138410       0.50000000 </v>
   <v>       0.85559006       0.85758690       0.50000000 </v>
   <v>       0.04754270       0.09547788       0.50000000 </v>
   <v>       0.18957833       0.09405657       0.50000000 </v>
   <v>       0.33254182       0.09365506       0.50000000 </v>
   <v>       0.47590681       0.09405657       0.50000000 </v>
   <v>       0.61936376       0.09547788       0.50000000 </v>
   <v>       0.76280004       0.09719274       0.50000000 </v>
   <v>       0.90582126       0.09719274       0.50000000 </v>
   <v>       0.04854983       0.23934281       0.50000000 </v>
   <v>       0.19048138       0.23782962       0.50000000 </v>
   <v>       0.33234878       0.23634667       0.50000000 </v>
   <v>       0.47542646       0.23634667       0.50000000 </v>
   <v>       0.61877681       0.23782962       0.50000000 </v>
   <v>       0.76222155       0.23934281       0.50000000 </v>
   <v>       0.90562797       0.23982737       0.50000000 </v>
   <v>       0.04871288       0.38232824       0.50000000 </v>
   <v>       0.19188940       0.38184213       0.50000000 </v>
   <v>       0.33352206       0.38013969       0.50000000 </v>
   <v>       0.47472270       0.37801683       0.50000000 </v>
   <v>       0.61804620       0.38013969       0.50000000 </v>
   <v>       0.76138130       0.38184213       0.50000000 </v>
   <v>       0.90504393       0.38232824       0.50000000 </v>
   <v>       0.04810654       0.52478452       0.50000000 </v>
   <v>       0.19263929       0.52476864       0.50000000 </v>
   <v>       0.33696521       0.52455433       0.50000000 </v>
   <v>       0.47833704       0.52146721       0.50000000 </v>
   <v>       0.61455874       0.52146721       0.50000000 </v>
   <v>       0.75901769       0.52455433       0.50000000 </v>
   <v>       0.90355792       0.52476864       0.50000000 </v>
   <v>       0.04642473       0.66685228       0.50000000 </v>
   <v>       0.19185612       0.66685228       0.50000000 </v>
   <v>       0.33777931       0.66688794       0.50000000 </v>
   <v>       0.48615700       0.66710760       0.50000000 </v>
   <v>       0.75237918       0.66710760       0.50000000 </v>
   <v>       0.90053720       0.66688794       0.50000000 </v>
   <v>       0.04582562       0.80879365       0.50000000 </v>
   <v>       0.19009580       0.80876303       0.50000000 </v>
   <v>       0.33439660       0.80879365       0.50000000 </v>
   <v>       0.47844872       0.80897069       0.50000000 </v>
   <v>       0.62209487       0.81129474       0.50000000 </v>
   <v>       0.76062845       0.81129474       0.50000000 </v>
   <v>       0.90195054       0.80897069       0.50000000 </v>
   <v>       0.04629157       0.95154386       0.50000000 </v>
   <v>       0.18948291       0.95113037       0.50000000 </v>
   <v>       0.33307603       0.95113037       0.50000000 </v>
   <v>       0.47668087       0.95154386       0.50000000 </v>
   <v>       0.62015751       0.95313740       0.50000000 </v>
   <v>       0.76355772       0.95568687       0.50000000 </v>
   <v>       0.90440847       0.95313740       0.50000000 </v>
   <v>       0.56830873       0.56518888       0.50000000 </v>
  </varray>
 </structure>
</modeling>
