<?xml version="1.0" encoding="ISO-8859-1"?>
<modeling>
 <generator>
  <i name="program" type="string">vasp </i>
  <i name="version" type="string">5.4.4.18Apr17-6-g9f103f2a35  </i>
  <i name="subversion" type="string">(build Oct 18 2020 22:16:12) gamma-only         parallel </i>
  <i name="platform" type="string">UA-vaughan-2020a </i>
  <i name="date" type="string">2023 03 21 </i>
  <i name="time" type="string">17:50:08 </i>
 </generator>
 <incar>
  <i type="string" name="PREC">accurate</i>
  <i type="int" name="IALGO">    38</i>
  <i type="logical" name="ADDGRID"> T  </i>
  <i type="int" name="NELMIN">     5</i>
  <i type="int" name="IBRION">    -1</i>
  <i name="EDIFF">      0.00000001</i>
  <i name="EDIFFG">     -0.00000001</i>
  <i type="int" name="NSW">     0</i>
  <i type="int" name="ISIF">     2</i>
  <i name="ENCUT">    500.00000000</i>
  <i type="logical" name="LREAL"> F  </i>
  <i type="int" name="ISMEAR">     0</i>
  <i name="SIGMA">      0.01000000</i>
  <i type="logical" name="LWAVE"> F  </i>
  <i type="logical" name="LCHARG"> F  </i>
  <v type="int" name="KPOINT_BSE">    -1     0     0     0</v>
 </incar>
 <structure name="primitive_cell" >
  <crystal>
   <varray name="basis" >
    <v>      17.59966831       0.00000000       0.00000000 </v>
    <v>      -8.79983416      15.24175986       0.00000000 </v>
    <v>       0.00000000       0.00000000      19.92151445 </v>
   </varray>
   <i name="volume">   5343.94461817 </i>
   <varray name="rec_basis" >
    <v>       0.05681925       0.03280461       0.00000000 </v>
    <v>       0.00000000       0.06560922       0.00000000 </v>
    <v>       0.00000000       0.00000000       0.05019699 </v>
   </varray>
  </crystal>
  <varray name="positions" >
   <v>      -0.00056990       0.00005992      -0.50000000 </v>
   <v>      -0.09559153      -0.04686260      -0.50000000 </v>
   <v>       0.04629157      -0.04845614      -0.50000000 </v>
   <v>       0.04754270       0.09547788      -0.50000000 </v>
   <v>      -0.14173506       0.00214292      -0.50000000 </v>
   <v>       0.14259355       0.14244783      -0.50000000 </v>
   <v>       0.14164706      -0.00128105      -0.50000000 </v>
   <v>      -0.00222825      -0.14386507      -0.50000000 </v>
   <v>      -0.14440994      -0.14241310      -0.50000000 </v>
   <v>       0.00043173       0.14408264       0.49962381 </v>
   <v>       0.18957833       0.09405657      -0.50000000 </v>
   <v>      -0.09417874       0.09719274      -0.50000000 </v>
   <v>      -0.09804946      -0.19102931      -0.50000000 </v>
   <v>      -0.23644228      -0.04431313      -0.50000000 </v>
   <v>      -0.23937155      -0.18870526      -0.50000000 </v>
   <v>       0.19048138       0.23782962      -0.50000000 </v>
   <v>       0.04582562      -0.19120635      -0.50000000 </v>
   <v>       0.18948291      -0.04886963      -0.50000000 </v>
   <v>       0.04854983       0.23934281      -0.50000000 </v>
   <v>      -0.28359367      -0.13861590      -0.50000000 </v>
   <v>       0.28470221       0.14112972      -0.50000000 </v>
   <v>      -0.14194737       0.14467669      -0.50000000 </v>
   <v>      -0.14938794      -0.28617460      -0.50000000 </v>
   <v>       0.14160898      -0.14408712      -0.50000000 </v>
   <v>       0.14372552       0.28645370      -0.50000000 </v>
   <v>      -0.28469345       0.00214292      -0.50000000 </v>
   <v>      -0.00292766      -0.28629482      -0.50000000 </v>
   <v>       0.28540977       0.28469374      -0.50000000 </v>
   <v>       0.00095476       0.28713011      -0.50000000 </v>
   <v>       0.28492260      -0.00158337      -0.50000000 </v>
   <v>      -0.29741032      -0.28373063      -0.50000000 </v>
   <v>      -0.09946280      -0.33311206      -0.50000000 </v>
   <v>       0.33234878       0.23634667      -0.50000000 </v>
   <v>      -0.23719996       0.09719274      -0.50000000 </v>
   <v>       0.33254182       0.09365506      -0.50000000 </v>
   <v>      -0.09437203       0.23982737      -0.50000000 </v>
   <v>      -0.24762082      -0.33289240      -0.50000000 </v>
   <v>      -0.37790513      -0.18870526      -0.50000000 </v>
   <v>       0.19188940       0.38184213      -0.50000000 </v>
   <v>       0.19009580      -0.19123697      -0.50000000 </v>
   <v>      -0.37984249      -0.04686260      -0.50000000 </v>
   <v>       0.04642473      -0.33314772      -0.50000000 </v>
   <v>       0.33352206       0.38013969      -0.50000000 </v>
   <v>       0.04871288       0.38232824      -0.50000000 </v>
   <v>       0.33307603      -0.04886963      -0.50000000 </v>
   <v>      -0.41489174      -0.28373063      -0.50000000 </v>
   <v>      -0.42657459      -0.14241310      -0.50000000 </v>
   <v>       0.42724431       0.28306005      -0.50000000 </v>
   <v>      -0.14538305      -0.42818375      -0.50000000 </v>
   <v>      -0.28529671       0.14408264      -0.50000000 </v>
   <v>      -0.28954788      -0.42784436      -0.50000000 </v>
   <v>       0.42785608       0.14112972      -0.50000000 </v>
   <v>      -0.14239608       0.28713011      -0.50000000 </v>
   <v>       0.14422690       0.42957551      -0.50000000 </v>
   <v>       0.28730213       0.42918005      -0.50000000 </v>
   <v>       0.14255519      -0.28631818      -0.50000000 </v>
   <v>       0.28573247      -0.14408712      -0.50000000 </v>
   <v>      -0.24098231      -0.47544567      -0.50000000 </v>
   <v>       0.47542646       0.23634667      -0.50000000 </v>
   <v>      -0.23777845       0.23934281      -0.50000000 </v>
   <v>       0.42797654       0.42569726      -0.50000000 </v>
   <v>      -0.42794161       0.00005992      -0.50000000 </v>
   <v>      -0.00071745      -0.42818538      -0.50000000 </v>
   <v>       0.00054479       0.42966101      -0.50000000 </v>
   <v>       0.42850047      -0.00128105      -0.50000000 </v>
   <v>      -0.43169127      -0.43481112      -0.50000000 </v>
   <v>       0.47472270       0.37801683      -0.50000000 </v>
   <v>      -0.09644208      -0.47523136      -0.50000000 </v>
   <v>      -0.38063624       0.09547788      -0.50000000 </v>
   <v>       0.47590681       0.09405657      -0.50000000 </v>
   <v>      -0.09495607       0.38232824      -0.50000000 </v>
   <v>      -0.38544126      -0.47853279      -0.50000000 </v>
   <v>       0.48615700      -0.33289240      -0.50000000 </v>
   <v>       0.47844872      -0.19102931      -0.50000000 </v>
   <v>       0.19263929      -0.47523136      -0.50000000 </v>
   <v>       0.33696521      -0.47544567      -0.50000000 </v>
   <v>       0.19185612      -0.33314772      -0.50000000 </v>
   <v>       0.33439660      -0.19120635      -0.50000000 </v>
   <v>       0.43464191      -0.28617460      -0.50000000 </v>
   <v>      -0.28669350       0.42918005      -0.50000000 </v>
   <v>      -0.42928746       0.28469374      -0.50000000 </v>
   <v>      -0.28584326       0.28645370      -0.50000000 </v>
   <v>       0.28862787      -0.42818375      -0.50000000 </v>
   <v>       0.28806142      -0.28629482      -0.50000000 </v>
   <v>       0.47668087      -0.04845614      -0.50000000 </v>
   <v>       0.47833704      -0.47853279      -0.50000000 </v>
   <v>       0.04810654      -0.47521548      -0.50000000 </v>
   <v>       0.43313209      -0.42784436      -0.50000000 </v>
   <v>       0.42979175      -0.14386507      -0.50000000 </v>
   <v>      -0.43085070       0.42569726      -0.50000000 </v>
   <v>      -0.14322281       0.42957551      -0.50000000 </v>
   <v>      -0.42871714       0.14244783      -0.50000000 </v>
   <v>       0.14396064      -0.42818538      -0.50000000 </v>
   <v>      -0.23861870       0.38184213      -0.50000000 </v>
   <v>      -0.38122319       0.23782962      -0.50000000 </v>
   <v>      -0.38195380       0.38013969      -0.50000000 </v>
   <v>       0.33777931      -0.33311206      -0.50000000 </v>
  </varray>
 </structure>
 <varray name="primitive_index" >
  <v type="int" >        1 </v>
  <v type="int" >       96 </v>
  <v type="int" >       90 </v>
  <v type="int" >       49 </v>
  <v type="int" >        7 </v>
  <v type="int" >        9 </v>
  <v type="int" >        2 </v>
  <v type="int" >       42 </v>
  <v type="int" >       48 </v>
  <v type="int" >        8 </v>
  <v type="int" >       50 </v>
  <v type="int" >       55 </v>
  <v type="int" >       89 </v>
  <v type="int" >       95 </v>
  <v type="int" >       88 </v>
  <v type="int" >       57 </v>
  <v type="int" >       83 </v>
  <v type="int" >       91 </v>
  <v type="int" >       56 </v>
  <v type="int" >       47 </v>
  <v type="int" >       10 </v>
  <v type="int" >       14 </v>
  <v type="int" >       41 </v>
  <v type="int" >       43 </v>
  <v type="int" >       16 </v>
  <v type="int" >        6 </v>
  <v type="int" >       35 </v>
  <v type="int" >       17 </v>
  <v type="int" >       15 </v>
  <v type="int" >        3 </v>
  <v type="int" >       40 </v>
  <v type="int" >       82 </v>
  <v type="int" >       58 </v>
  <v type="int" >       54 </v>
  <v type="int" >       51 </v>
  <v type="int" >       62 </v>
  <v type="int" >       81 </v>
  <v type="int" >       87 </v>
  <v type="int" >       64 </v>
  <v type="int" >       84 </v>
  <v type="int" >       94 </v>
  <v type="int" >       77 </v>
  <v type="int" >       65 </v>
  <v type="int" >       63 </v>
  <v type="int" >       92 </v>
  <v type="int" >       39 </v>
  <v type="int" >       46 </v>
  <v type="int" >       18 </v>
  <v type="int" >       34 </v>
  <v type="int" >       13 </v>
  <v type="int" >       33 </v>
  <v type="int" >       11 </v>
  <v type="int" >       21 </v>
  <v type="int" >       23 </v>
  <v type="int" >       24 </v>
  <v type="int" >       36 </v>
  <v type="int" >       44 </v>
  <v type="int" >       75 </v>
  <v type="int" >       59 </v>
  <v type="int" >       61 </v>
  <v type="int" >       25 </v>
  <v type="int" >        5 </v>
  <v type="int" >       29 </v>
  <v type="int" >       22 </v>
  <v type="int" >        4 </v>
  <v type="int" >       97 </v>
  <v type="int" >       66 </v>
  <v type="int" >       76 </v>
  <v type="int" >       53 </v>
  <v type="int" >       52 </v>
  <v type="int" >       69 </v>
  <v type="int" >       74 </v>
  <v type="int" >       80 </v>
  <v type="int" >       86 </v>
  <v type="int" >       71 </v>
  <v type="int" >       72 </v>
  <v type="int" >       78 </v>
  <v type="int" >       85 </v>
  <v type="int" >       38 </v>
  <v type="int" >       27 </v>
  <v type="int" >       19 </v>
  <v type="int" >       20 </v>
  <v type="int" >       31 </v>
  <v type="int" >       37 </v>
  <v type="int" >       93 </v>
  <v type="int" >       73 </v>
  <v type="int" >       70 </v>
  <v type="int" >       32 </v>
  <v type="int" >       45 </v>
  <v type="int" >       26 </v>
  <v type="int" >       28 </v>
  <v type="int" >       12 </v>
  <v type="int" >       30 </v>
  <v type="int" >       68 </v>
  <v type="int" >       60 </v>
  <v type="int" >       67 </v>
  <v type="int" >       79 </v>
 </varray>
 <kpoints>
  <generation param="Gamma">
   <v type="int" name="divisions">       1        1        1 </v>
   <v name="usershift">      0.00000000       0.00000000       0.00000000 </v>
   <v name="genvec1">      1.00000000      -0.00000000       0.00000000 </v>
   <v name="genvec2">      0.00000000       1.00000000       0.00000000 </v>
   <v name="genvec3">      0.00000000       0.00000000       1.00000000 </v>
   <v name="shift">      0.00000000       0.00000000       0.00000000 </v>
  </generation>
  <varray name="kpointlist" >
   <v>       0.00000000       0.00000000       0.00000000 </v>
  </varray>
  <varray name="weights" >
   <v>       1.00000000 </v>
  </varray>
 </kpoints>
 <parameters>
  <separator name="general" >
   <i type="string" name="SYSTEM">unknown system</i>
   <i type="logical" name="LCOMPAT"> F  </i>
  </separator>
  <separator name="electronic" >
   <i type="string" name="PREC">accura</i>
   <i name="ENMAX">    500.00000000</i>
   <i name="ENAUG">    644.87300000</i>
   <i name="EDIFF">      0.00000001</i>
   <i type="int" name="IALGO">    38</i>
   <i type="int" name="IWAVPR">    10</i>
   <i type="int" name="NBANDS">   244</i>
   <i name="NELECT">    388.00000000</i>
   <i type="int" name="TURBO">     0</i>
   <i type="int" name="IRESTART">     0</i>
   <i type="int" name="NREBOOT">     0</i>
   <i type="int" name="NMIN">     0</i>
   <i name="EREF">      0.00000000</i>
   <separator name="electronic smearing" >
    <i type="int" name="ISMEAR">     0</i>
    <i name="SIGMA">      0.01000000</i>
    <i name="KSPACING">      0.50000000</i>
    <i type="logical" name="KGAMMA"> T  </i>
   </separator>
   <separator name="electronic projectors" >
    <i type="logical" name="LREAL"> F  </i>
    <v name="ROPT">      0.00000000      0.00000000      0.00000000</v>
    <i type="int" name="LMAXPAW">  -100</i>
    <i type="int" name="LMAXMIX">     2</i>
    <i type="logical" name="NLSPLINE"> F  </i>
   </separator>
   <separator name="electronic startup" >
    <i type="int" name="ISTART">     0</i>
    <i type="int" name="ICHARG">     2</i>
    <i type="int" name="INIWAV">     1</i>
   </separator>
   <separator name="electronic spin" >
    <i type="int" name="ISPIN">     1</i>
    <i type="logical" name="LNONCOLLINEAR"> F  </i>
    <v name="MAGMOM">      1.00000000      1.00000000      1.00000000      1.00000000      1.00000000      1.00000000      1.00000000      1.00000000      1.00000000      1.00000000      1.00000000      1.00000000      1.00000000      1.00000000      1.00000000      1.00000000      1.00000000      1.00000000      1.00000000      1.00000000
      1.00000000      1.00000000      1.00000000      1.00000000      1.00000000      1.00000000      1.00000000      1.00000000      1.00000000      1.00000000      1.00000000      1.00000000      1.00000000      1.00000000      1.00000000      1.00000000      1.00000000      1.00000000      1.00000000      1.00000000
      1.00000000      1.00000000      1.00000000      1.00000000      1.00000000      1.00000000      1.00000000      1.00000000      1.00000000      1.00000000      1.00000000      1.00000000      1.00000000      1.00000000      1.00000000      1.00000000      1.00000000      1.00000000      1.00000000      1.00000000
      1.00000000      1.00000000      1.00000000      1.00000000      1.00000000      1.00000000      1.00000000      1.00000000      1.00000000      1.00000000      1.00000000      1.00000000      1.00000000      1.00000000      1.00000000      1.00000000      1.00000000      1.00000000      1.00000000      1.00000000
      1.00000000      1.00000000      1.00000000      1.00000000      1.00000000      1.00000000      1.00000000      1.00000000      1.00000000      1.00000000      1.00000000      1.00000000      1.00000000      1.00000000      1.00000000      1.00000000      1.00000000</v>
    <i name="NUPDOWN">     -1.00000000</i>
    <i type="logical" name="LSORBIT"> F  </i>
    <v name="SAXIS">      0.00000000      0.00000000      1.00000000</v>
    <i type="logical" name="LSPIRAL"> F  </i>
    <v name="QSPIRAL">      0.00000000      0.00000000      0.00000000</v>
    <i type="logical" name="LZEROZ"> F  </i>
   </separator>
   <separator name="electronic exchange-correlation" >
    <i type="logical" name="LASPH"> F  </i>
    <i type="logical" name="LMETAGGA"> F  </i>
   </separator>
   <separator name="electronic convergence" >
    <i type="int" name="NELM">    60</i>
    <i type="int" name="NELMDL">    -5</i>
    <i type="int" name="NELMIN">     5</i>
    <i name="ENINI">    500.00000000</i>
    <separator name="electronic convergence detail" >
     <i type="logical" name="LDIAG"> T  </i>
     <i type="logical" name="LSUBROT"> F  </i>
     <i name="WEIMIN">      0.00000000</i>
     <i name="EBREAK">      0.00000000</i>
     <i name="DEPER">      0.30000000</i>
     <i type="int" name="NRMM">     4</i>
     <i name="TIME">      0.40000000</i>
    </separator>
   </separator>
   <separator name="electronic mixer" >
    <i name="AMIX">      0.40000000</i>
    <i name="BMIX">      1.00000000</i>
    <i name="AMIN">      0.10000000</i>
    <i name="AMIX_MAG">      1.60000000</i>
    <i name="BMIX_MAG">      1.00000000</i>
    <separator name="electronic mixer details" >
     <i type="int" name="IMIX">     4</i>
     <i type="logical" name="MIXFIRST"> F  </i>
     <i type="int" name="MAXMIX">   -45</i>
     <i name="WC">    100.00000000</i>
     <i type="int" name="INIMIX">     1</i>
     <i type="int" name="MIXPRE">     1</i>
     <i type="int" name="MREMOVE">     5</i>
    </separator>
   </separator>
   <separator name="electronic dipolcorrection" >
    <i type="logical" name="LDIPOL"> F  </i>
    <i type="logical" name="LMONO"> F  </i>
    <i type="int" name="IDIPOL">     0</i>
    <i name="EPSILON">      1.00000000</i>
    <v name="DIPOL">   -100.00000000   -100.00000000   -100.00000000</v>
    <i name="EFIELD">      0.00000000</i>
   </separator>
  </separator>
  <separator name="grids" >
   <i type="int" name="NGX">   128</i>
   <i type="int" name="NGY">   128</i>
   <i type="int" name="NGZ">   150</i>
   <i type="int" name="NGXF">   256</i>
   <i type="int" name="NGYF">   256</i>
   <i type="int" name="NGZF">   300</i>
   <i type="logical" name="ADDGRID"> T  </i>
  </separator>
  <separator name="ionic" >
   <i type="int" name="NSW">     0</i>
   <i type="int" name="IBRION">    -1</i>
   <i type="int" name="MDALGO">     0</i>
   <i type="int" name="ISIF">     2</i>
   <i name="PSTRESS">      0.00000000</i>
   <i name="EDIFFG">     -0.00000001</i>
   <i type="int" name="NFREE">     0</i>
   <i name="POTIM">      0.50000000</i>
   <i name="SMASS">     -3.00000000</i>
   <i name="SCALEE">      1.00000000</i>
  </separator>
  <separator name="ionic md" >
   <i name="TEBEG">      0.00010000</i>
   <i name="TEEND">      0.00010000</i>
   <i type="int" name="NBLOCK">     1</i>
   <i type="int" name="KBLOCK">     1</i>
   <i type="int" name="NPACO">   256</i>
   <i name="APACO">     16.00000000</i>
  </separator>
  <separator name="symmetry" >
   <i type="int" name="ISYM">     2</i>
   <i name="SYMPREC">      0.00001000</i>
  </separator>
  <separator name="dos" >
   <i type="int" name="LORBIT">     0</i>
   <v name="RWIGS">     -1.00000000     -1.00000000     -1.00000000</v>
   <i type="int" name="NEDOS">   301</i>
   <i name="EMIN">     10.00000000</i>
   <i name="EMAX">    -10.00000000</i>
   <i name="EFERMI">      0.00000000</i>
  </separator>
  <separator name="writing" >
   <i type="int" name="NWRITE">     2</i>
   <i type="logical" name="LWAVE"> F  </i>
   <i type="logical" name="LDOWNSAMPLE"> F  </i>
   <i type="logical" name="LCHARG"> F  </i>
   <i type="logical" name="LPARD"> F  </i>
   <i type="logical" name="LVTOT"> F  </i>
   <i type="logical" name="LVHAR"> F  </i>
   <i type="logical" name="LELF"> F  </i>
   <i type="logical" name="LOPTICS"> F  </i>
   <v name="STM">      0.00000000      0.00000000      0.00000000      0.00000000      0.00000000      0.00000000      0.00000000</v>
  </separator>
  <separator name="performance" >
   <i type="int" name="NPAR">     4</i>
   <i type="int" name="NSIM">     4</i>
   <i type="int" name="NBLK">    -1</i>
   <i type="logical" name="LPLANE"> T  </i>
   <i type="logical" name="LSCALAPACK"> T  </i>
   <i type="logical" name="LSCAAWARE"> F  </i>
   <i type="logical" name="LSCALU"> F  </i>
   <i type="logical" name="LASYNC"> F  </i>
   <i type="logical" name="LORBITALREAL"> F  </i>
  </separator>
  <separator name="miscellaneous" >
   <i type="int" name="IDIOT">     3</i>
   <i type="int" name="ISPECIAL">     0</i>
   <i type="logical" name="LMUSIC"> F  </i>
   <v name="POMASS">     10.81100000     14.00100000     12.01100000</v>
   <v name="DARWINR">      0.00000000      0.00000000      0.00000000</v>
   <v name="DARWINV">      1.00000000      1.00000000      1.00000000</v>
   <i type="logical" name="LCORR"> T  </i>
  </separator>
  <i type="logical" name="GGA_COMPAT"> T  </i>
  <i type="logical" name="LBERRY"> F  </i>
  <i type="int" name="ICORELEVEL">     0</i>
  <i type="logical" name="LDAU"> F  </i>
  <i type="int" name="I_CONSTRAINED_M">     0</i>
  <separator name="electronic exchange-correlation" >
   <i type="string" name="GGA">--</i>
   <i type="int" name="VOSKOWN">     0</i>
   <i type="logical" name="LHFCALC"> F  </i>
   <i type="string" name="PRECFOCK"></i>
   <i type="logical" name="LSYMGRAD"> F  </i>
   <i type="logical" name="LHFONE"> F  </i>
   <i type="logical" name="LRHFCALC"> F  </i>
   <i type="logical" name="LTHOMAS"> F  </i>
   <i type="logical" name="LMODELHF"> F  </i>
   <i name="ENCUT4O">     -1.00000000</i>
   <i type="int" name="EXXOEP">     0</i>
   <i type="int" name="FOURORBIT">     0</i>
   <i name="AEXX">      0.00000000</i>
   <i name="HFALPHA">      0.00000000</i>
   <i name="MCALPHA">      0.00000000</i>
   <i name="ALDAX">      1.00000000</i>
   <i name="AGGAX">      1.00000000</i>
   <i name="ALDAC">      1.00000000</i>
   <i name="AGGAC">      1.00000000</i>
   <i type="int" name="NKREDX">     1</i>
   <i type="int" name="NKREDY">     1</i>
   <i type="int" name="NKREDZ">     1</i>
   <i type="logical" name="SHIFTRED"> F  </i>
   <i type="logical" name="ODDONLY"> F  </i>
   <i type="logical" name="EVENONLY"> F  </i>
   <i type="int" name="LMAXFOCK">     0</i>
   <i type="int" name="NMAXFOCKAE">     0</i>
   <i type="logical" name="LFOCKAEDFT"> F  </i>
   <i name="HFSCREEN">      0.00000000</i>
   <i name="HFSCREENC">      0.00000000</i>
   <i type="int" name="NBANDSGWLOW">     0</i>
  </separator>
  <separator name="vdW DFT" >
   <i type="logical" name="LUSE_VDW"> F  </i>
   <i name="Zab_VDW">     -0.84910000</i>
   <i name="PARAM1">      0.12340000</i>
   <i name="PARAM2">      1.00000000</i>
   <i name="PARAM3">      0.00000000</i>
  </separator>
  <separator name="model GW" >
   <i type="int" name="MODEL_GW">     0</i>
   <i name="MODEL_EPS0">     33.05532754</i>
   <i name="MODEL_ALPHA">      1.00000000</i>
  </separator>
  <separator name="linear response parameters" >
   <i type="logical" name="LEPSILON"> F  </i>
   <i type="logical" name="LRPA"> F  </i>
   <i type="logical" name="LNABLA"> F  </i>
   <i type="logical" name="LVEL"> F  </i>
   <i type="int" name="KINTER">     0</i>
   <i name="CSHIFT">      0.10000000</i>
   <i name="OMEGAMAX">     -1.00000000</i>
   <i name="DEG_THRESHOLD">      0.00200000</i>
   <i name="RTIME">     -0.10000000</i>
   <i name="WPLASMAI">      0.00000000</i>
   <v name="DFIELD">      0.00000000      0.00000000      0.00000000</v>
   <v name="WPLASMA">      0.00000000      0.00000000      0.00000000      0.00000000      0.00000000      0.00000000      0.00000000      0.00000000      0.00000000</v>
  </separator>
  <separator name="orbital magnetization" >
   <i type="logical" name="NUCIND"> F  </i>
   <v name="MAGPOS">      0.00000000      0.00000000      0.00000000</v>
   <i type="logical" name="LNICSALL"> T  </i>
   <i type="logical" name="ORBITALMAG"> F  </i>
   <i type="logical" name="LMAGBLOCH"> F  </i>
   <i type="logical" name="LCHIMAG"> F  </i>
   <i type="logical" name="LGAUGE"> T  </i>
   <i type="int" name="MAGATOM">     0</i>
   <v name="MAGDIPOL">      0.00000000      0.00000000      0.00000000</v>
   <v name="AVECCONST">      0.00000000      0.00000000      0.00000000</v>
  </separator>
  <separator name="response functions" >
   <i type="logical" name="LADDER"> F  </i>
   <i type="logical" name="LRPAFORCE"> F  </i>
   <i type="logical" name="LFXC"> F  </i>
   <i type="logical" name="LHARTREE"> T  </i>
   <i type="int" name="IBSE">     0</i>
   <v type="int" name="KPOINT">    -1     0     0     0</v>
   <i type="logical" name="LTCTE"> F  </i>
   <i type="logical" name="LTETE"> F  </i>
   <i type="logical" name="LTRIPLET"> F  </i>
   <i type="logical" name="LFXCEPS"> F  </i>
   <i type="logical" name="LFXHEG"> F  </i>
   <i type="int" name="NATURALO">     2</i>
   <i type="logical" name="L2ORDER"> F  </i>
   <i type="logical" name="LMP2LT"> F  </i>
   <i type="logical" name="LUSEW"> F  </i>
   <i name="ENCUTGW">     -2.00000000</i>
   <i name="ENCUTGWSOFT">     -2.00000000</i>
   <i name="ENCUTLF">     -1.00000000</i>
   <i type="int" name="LMAXMP2">    -1</i>
   <i name="SCISSOR">      0.00000000</i>
   <i type="int" name="NOMEGA">     0</i>
   <i type="int" name="NOMEGAR">     0</i>
   <i type="int" name="NBANDSGW">    -1</i>
   <i type="int" name="NBANDSO">    -1</i>
   <i type="int" name="NBANDSV">    -1</i>
   <i type="int" name="NELM">     1</i>
   <i type="int" name="NELMHF">     1</i>
   <i type="int" name="DIM">     3</i>
   <i type="int" name="ANTIRES">     0</i>
   <i name="OMEGAMAX">    -30.00000000</i>
   <i name="OMEGAMIN">    -30.00000000</i>
   <i name="OMEGATL">   -200.00000000</i>
   <i type="int" name="OMEGAGRID">   140</i>
   <i name="CSHIFT">     -0.10000000</i>
   <i type="logical" name="SELFENERGY"> F  </i>
   <i type="logical" name="LSPECTRAL"> F  </i>
   <i type="logical" name="LSPECTRALGW"> F  </i>
   <i type="logical" name="LSINGLES"> F  </i>
   <i type="logical" name="LFERMIGW"> F  </i>
   <i type="logical" name="ODDONLYGW"> F  </i>
   <i type="logical" name="EVENONLYGW"> F  </i>
   <i type="int" name="NKREDLFX">     1</i>
   <i type="int" name="NKREDLFY">     1</i>
   <i type="int" name="NKREDLFZ">     1</i>
   <i type="int" name="MAXMEM">  2800</i>
   <i type="int" name="TELESCOPE">     0</i>
   <i type="int" name="TAUPAR">     1</i>
   <i type="int" name="OMEGAPAR">    -1</i>
   <i name="LAMBDA">      1.00000000</i>
  </separator>
  <separator name="External order field" >
   <i name="OFIELD_KAPPA">      0.00000000</i>
   <v name="OFIELD_K">      0.00000000      0.00000000      0.00000000</v>
   <i name="OFIELD_Q6_NEAR">      0.00000000</i>
   <i name="OFIELD_Q6_FAR">      0.00000000</i>
   <i name="OFIELD_A">      0.00000000</i>
  </separator>
 </parameters>
 <atominfo>
  <atoms>      97 </atoms>
  <types>       3 </types>
  <array name="atoms" >
   <dimension dim="1">ion</dimension>
   <field type="string">element</field>
   <field type="int">atomtype</field>
   <set>
    <rc><c>B </c><c>   1</c></rc>
    <rc><c>B </c><c>   1</c></rc>
    <rc><c>B </c><c>   1</c></rc>
    <rc><c>B </c><c>   1</c></rc>
    <rc><c>B </c><c>   1</c></rc>
    <rc><c>B </c><c>   1</c></rc>
    <rc><c>B </c><c>   1</c></rc>
    <rc><c>B </c><c>   1</c></rc>
    <rc><c>B </c><c>   1</c></rc>
    <rc><c>B </c><c>   1</c></rc>
    <rc><c>B </c><c>   1</c></rc>
    <rc><c>B </c><c>   1</c></rc>
    <rc><c>B </c><c>   1</c></rc>
    <rc><c>B </c><c>   1</c></rc>
    <rc><c>B </c><c>   1</c></rc>
    <rc><c>B </c><c>   1</c></rc>
    <rc><c>B </c><c>   1</c></rc>
    <rc><c>B </c><c>   1</c></rc>
    <rc><c>B </c><c>   1</c></rc>
    <rc><c>B </c><c>   1</c></rc>
    <rc><c>B </c><c>   1</c></rc>
    <rc><c>B </c><c>   1</c></rc>
    <rc><c>B </c><c>   1</c></rc>
    <rc><c>B </c><c>   1</c></rc>
    <rc><c>B </c><c>   1</c></rc>
    <rc><c>B </c><c>   1</c></rc>
    <rc><c>B </c><c>   1</c></rc>
    <rc><c>B </c><c>   1</c></rc>
    <rc><c>B </c><c>   1</c></rc>
    <rc><c>B </c><c>   1</c></rc>
    <rc><c>B </c><c>   1</c></rc>
    <rc><c>B </c><c>   1</c></rc>
    <rc><c>B </c><c>   1</c></rc>
    <rc><c>B </c><c>   1</c></rc>
    <rc><c>B </c><c>   1</c></rc>
    <rc><c>B </c><c>   1</c></rc>
    <rc><c>B </c><c>   1</c></rc>
    <rc><c>B </c><c>   1</c></rc>
    <rc><c>B </c><c>   1</c></rc>
    <rc><c>B </c><c>   1</c></rc>
    <rc><c>B </c><c>   1</c></rc>
    <rc><c>B </c><c>   1</c></rc>
    <rc><c>B </c><c>   1</c></rc>
    <rc><c>B </c><c>   1</c></rc>
    <rc><c>B </c><c>   1</c></rc>
    <rc><c>B </c><c>   1</c></rc>
    <rc><c>B </c><c>   1</c></rc>
    <rc><c>B </c><c>   1</c></rc>
    <rc><c>N </c><c>   2</c></rc>
    <rc><c>N </c><c>   2</c></rc>
    <rc><c>N </c><c>   2</c></rc>
    <rc><c>N </c><c>   2</c></rc>
    <rc><c>N </c><c>   2</c></rc>
    <rc><c>N </c><c>   2</c></rc>
    <rc><c>N </c><c>   2</c></rc>
    <rc><c>N </c><c>   2</c></rc>
    <rc><c>N </c><c>   2</c></rc>
    <rc><c>N </c><c>   2</c></rc>
    <rc><c>N </c><c>   2</c></rc>
    <rc><c>N </c><c>   2</c></rc>
    <rc><c>N </c><c>   2</c></rc>
    <rc><c>N </c><c>   2</c></rc>
    <rc><c>N </c><c>   2</c></rc>
    <rc><c>N </c><c>   2</c></rc>
    <rc><c>N </c><c>   2</c></rc>
    <rc><c>N </c><c>   2</c></rc>
    <rc><c>N </c><c>   2</c></rc>
    <rc><c>N </c><c>   2</c></rc>
    <rc><c>N </c><c>   2</c></rc>
    <rc><c>N </c><c>   2</c></rc>
    <rc><c>N </c><c>   2</c></rc>
    <rc><c>N </c><c>   2</c></rc>
    <rc><c>N </c><c>   2</c></rc>
    <rc><c>N </c><c>   2</c></rc>
    <rc><c>N </c><c>   2</c></rc>
    <rc><c>N </c><c>   2</c></rc>
    <rc><c>N </c><c>   2</c></rc>
    <rc><c>N </c><c>   2</c></rc>
    <rc><c>N </c><c>   2</c></rc>
    <rc><c>N </c><c>   2</c></rc>
    <rc><c>N </c><c>   2</c></rc>
    <rc><c>N </c><c>   2</c></rc>
    <rc><c>N </c><c>   2</c></rc>
    <rc><c>N </c><c>   2</c></rc>
    <rc><c>N </c><c>   2</c></rc>
    <rc><c>N </c><c>   2</c></rc>
    <rc><c>N </c><c>   2</c></rc>
    <rc><c>N </c><c>   2</c></rc>
    <rc><c>N </c><c>   2</c></rc>
    <rc><c>N </c><c>   2</c></rc>
    <rc><c>N </c><c>   2</c></rc>
    <rc><c>N </c><c>   2</c></rc>
    <rc><c>N </c><c>   2</c></rc>
    <rc><c>N </c><c>   2</c></rc>
    <rc><c>N </c><c>   2</c></rc>
    <rc><c>N </c><c>   2</c></rc>
    <rc><c>C </c><c>   3</c></rc>
   </set>
  </array>
  <array name="atomtypes" >
   <dimension dim="1">type</dimension>
   <field type="int">atomspertype</field>
   <field type="string">element</field>
   <field>mass</field>
   <field>valence</field>
   <field type="string">pseudopotential</field>
   <set>
    <rc><c>  48</c><c>B </c><c>     10.81100000</c><c>      3.00000000</c><c>  PAW_PBE B 06Sep2000                   </c></rc>
    <rc><c>  48</c><c>N </c><c>     14.00100000</c><c>      5.00000000</c><c>  PAW_PBE N 08Apr2002                   </c></rc>
    <rc><c>   1</c><c>C </c><c>     12.01100000</c><c>      4.00000000</c><c>  PAW_PBE C 08Apr2002                   </c></rc>
   </set>
  </array>
 </atominfo>
 <structure name="initialpos" >
  <crystal>
   <varray name="basis" >
    <v>      17.59966831       0.00000000       0.00000000 </v>
    <v>      -8.79983416      15.24175986       0.00000000 </v>
    <v>       0.00000000       0.00000000      19.92151445 </v>
   </varray>
   <i name="volume">   5343.94461817 </i>
   <varray name="rec_basis" >
    <v>       0.05681925       0.03280461       0.00000000 </v>
    <v>       0.00000000       0.06560922       0.00000000 </v>
    <v>       0.00000000       0.00000000       0.05019699 </v>
   </varray>
  </crystal>
  <varray name="positions" >
   <v>       0.99943010       0.00005992       0.50000000 </v>
   <v>       0.14164706       0.99871895       0.50000000 </v>
   <v>       0.28492260       0.99841663       0.50000000 </v>
   <v>       0.42850047       0.99871895       0.50000000 </v>
   <v>       0.57205839       0.00005992       0.50000000 </v>
   <v>       0.71530655       0.00214292       0.50000000 </v>
   <v>       0.85826494       0.00214292       0.50000000 </v>
   <v>       0.00043173       0.14408264       0.49962381 </v>
   <v>       0.14259355       0.14244783       0.50000000 </v>
   <v>       0.28470221       0.14112972       0.50000000 </v>
   <v>       0.42785608       0.14112972       0.50000000 </v>
   <v>       0.57128286       0.14244783       0.50000000 </v>
   <v>       0.71470329       0.14408264       0.50000000 </v>
   <v>       0.85805263       0.14467669       0.50000000 </v>
   <v>       0.00095476       0.28713011       0.50000000 </v>
   <v>       0.14372552       0.28645370       0.50000000 </v>
   <v>       0.28540977       0.28469374       0.50000000 </v>
   <v>       0.42724431       0.28306005       0.50000000 </v>
   <v>       0.57071254       0.28469374       0.50000000 </v>
   <v>       0.71415674       0.28645370       0.50000000 </v>
   <v>       0.85760392       0.28713011       0.50000000 </v>
   <v>       0.00054479       0.42966101       0.50000000 </v>
   <v>       0.14422690       0.42957551       0.50000000 </v>
   <v>       0.28730213       0.42918005       0.50000000 </v>
   <v>       0.42797654       0.42569726       0.50000000 </v>
   <v>       0.56914930       0.42569726       0.50000000 </v>
   <v>       0.71330650       0.42918005       0.50000000 </v>
   <v>       0.85677719       0.42957551       0.50000000 </v>
   <v>       0.99928255       0.57181462       0.50000000 </v>
   <v>       0.14396064       0.57181462       0.50000000 </v>
   <v>       0.28862787       0.57181625       0.50000000 </v>
   <v>       0.43313209       0.57215564       0.50000000 </v>
   <v>       0.71045212       0.57215564       0.50000000 </v>
   <v>       0.85461695       0.57181625       0.50000000 </v>
   <v>       0.99707234       0.71370518       0.50000000 </v>
   <v>       0.14255519       0.71368182       0.50000000 </v>
   <v>       0.28806142       0.71370518       0.50000000 </v>
   <v>       0.43464191       0.71382540       0.50000000 </v>
   <v>       0.58510826       0.71626937       0.50000000 </v>
   <v>       0.70258968       0.71626937       0.50000000 </v>
   <v>       0.85061206       0.71382540       0.50000000 </v>
   <v>       0.99777175       0.85613493       0.50000000 </v>
   <v>       0.14160898       0.85591288       0.50000000 </v>
   <v>       0.28573247       0.85591288       0.50000000 </v>
   <v>       0.42979175       0.85613493       0.50000000 </v>
   <v>       0.57342541       0.85758690       0.50000000 </v>
   <v>       0.71640633       0.86138410       0.50000000 </v>
   <v>       0.85559006       0.85758690       0.50000000 </v>
   <v>       0.04754270       0.09547788       0.50000000 </v>
   <v>       0.18957833       0.09405657       0.50000000 </v>
   <v>       0.33254182       0.09365506       0.50000000 </v>
   <v>       0.47590681       0.09405657       0.50000000 </v>
   <v>       0.61936376       0.09547788       0.50000000 </v>
   <v>       0.76280004       0.09719274       0.50000000 </v>
   <v>       0.90582126       0.09719274       0.50000000 </v>
   <v>       0.04854983       0.23934281       0.50000000 </v>
   <v>       0.19048138       0.23782962       0.50000000 </v>
   <v>       0.33234878       0.23634667       0.50000000 </v>
   <v>       0.47542646       0.23634667       0.50000000 </v>
   <v>       0.61877681       0.23782962       0.50000000 </v>
   <v>       0.76222155       0.23934281       0.50000000 </v>
   <v>       0.90562797       0.23982737       0.50000000 </v>
   <v>       0.04871288       0.38232824       0.50000000 </v>
   <v>       0.19188940       0.38184213       0.50000000 </v>
   <v>       0.33352206       0.38013969       0.50000000 </v>
   <v>       0.47472270       0.37801683       0.50000000 </v>
   <v>       0.61804620       0.38013969       0.50000000 </v>
   <v>       0.76138130       0.38184213       0.50000000 </v>
   <v>       0.90504393       0.38232824       0.50000000 </v>
   <v>       0.04810654       0.52478452       0.50000000 </v>
   <v>       0.19263929       0.52476864       0.50000000 </v>
   <v>       0.33696521       0.52455433       0.50000000 </v>
   <v>       0.47833704       0.52146721       0.50000000 </v>
   <v>       0.61455874       0.52146721       0.50000000 </v>
   <v>       0.75901769       0.52455433       0.50000000 </v>
   <v>       0.90355792       0.52476864       0.50000000 </v>
   <v>       0.04642473       0.66685228       0.50000000 </v>
   <v>       0.19185612       0.66685228       0.50000000 </v>
   <v>       0.33777931       0.66688794       0.50000000 </v>
   <v>       0.48615700       0.66710760       0.50000000 </v>
   <v>       0.75237918       0.66710760       0.50000000 </v>
   <v>       0.90053720       0.66688794       0.50000000 </v>
   <v>       0.04582562       0.80879365       0.50000000 </v>
   <v>       0.19009580       0.80876303       0.50000000 </v>
   <v>       0.33439660       0.80879365       0.50000000 </v>
   <v>       0.47844872       0.80897069       0.50000000 </v>
   <v>       0.62209487       0.81129474       0.50000000 </v>
   <v>       0.76062845       0.81129474       0.50000000 </v>
   <v>       0.90195054       0.80897069       0.50000000 </v>
   <v>       0.04629157       0.95154386       0.50000000 </v>
   <v>       0.18948291       0.95113037       0.50000000 </v>
   <v>       0.33307603       0.95113037       0.50000000 </v>
   <v>       0.47668087       0.95154386       0.50000000 </v>
   <v>       0.62015751       0.95313740       0.50000000 </v>
   <v>       0.76355772       0.95568687       0.50000000 </v>
   <v>       0.90440847       0.95313740       0.50000000 </v>
   <v>       0.56830873       0.56518888       0.50000000 </v>
  </varray>
 </structure>
 <calculation>
  <scstep>
   <time name="dav">    2.35    2.38</time>
   <time name="total">    2.75    2.81</time>
   <energy>
    <i name="alphaZ">    156.50993408 </i>
    <i name="ewald">  58206.77609988 </i>
    <i name="hartreedc"> -70374.19632796 </i>
    <i name="XCdc">   1302.10876804 </i>
    <i name="pawpsdc">  12033.28670802 </i>
    <i name="pawaedc"> -12049.96799276 </i>
    <i name="eentropy">     -0.00000000 </i>
    <i name="bandstr">   -904.55891641 </i>
    <i name="atom">  16260.93880140 </i>
    <i name="e_fr_energy">   4630.89707428 </i>
    <i name="e_wo_entrp">   4630.89707428 </i>
    <i name="e_0_energy">   4630.89707428 </i>
   </energy>
  </scstep>
  <scstep>
   <time name="dav">    3.00    4.05</time>
   <time name="total">    3.01    4.05</time>
   <energy>
    <i name="e_fr_energy">    216.80368728 </i>
    <i name="e_wo_entrp">    216.80368728 </i>
    <i name="e_0_energy">    216.80368728 </i>
   </energy>
  </scstep>
  <scstep>
   <time name="dav">    2.47    2.75</time>
   <time name="total">    2.47    2.75</time>
   <energy>
    <i name="e_fr_energy">   -867.45965186 </i>
    <i name="e_wo_entrp">   -867.45965186 </i>
    <i name="e_0_energy">   -867.45965186 </i>
   </energy>
  </scstep>
  <scstep>
   <time name="dav">    2.52    2.91</time>
   <time name="total">    2.52    2.91</time>
   <energy>
    <i name="e_fr_energy">   -934.19592276 </i>
    <i name="e_wo_entrp">   -934.19592276 </i>
    <i name="e_0_energy">   -934.19592276 </i>
   </energy>
  </scstep>
  <scstep>
   <time name="dav">    2.50    3.03</time>
   <time name="total">    2.75    3.27</time>
   <energy>
    <i name="e_fr_energy">   -935.77602458 </i>
    <i name="e_wo_entrp">   -935.77602458 </i>
    <i name="e_0_energy">   -935.77602458 </i>
   </energy>
  </scstep>
  <scstep>
   <time name="dav">    2.33    2.35</time>
   <time name="total">    2.95    2.98</time>
   <energy>
    <i name="e_fr_energy">   -858.73043395 </i>
    <i name="e_wo_entrp">   -858.73043395 </i>
    <i name="e_0_energy">   -858.73043395 </i>
   </energy>
  </scstep>
  <scstep>
   <time name="dav">    2.36    2.37</time>
   <time name="total">    2.96    3.00</time>
   <energy>
    <i name="e_fr_energy">   -850.19407139 </i>
    <i name="e_wo_entrp">   -850.19407139 </i>
    <i name="e_0_energy">   -850.19407139 </i>
   </energy>
  </scstep>
  <scstep>
   <time name="dav">    2.28    2.30</time>
   <time name="total">    2.89    2.93</time>
   <energy>
    <i name="e_fr_energy">   -845.92753935 </i>
    <i name="e_wo_entrp">   -845.92753832 </i>
    <i name="e_0_energy">   -845.92753883 </i>
   </energy>
  </scstep>
  <scstep>
   <time name="dav">    2.32    2.34</time>
   <time name="total">    2.93    2.96</time>
   <energy>
    <i name="e_fr_energy">   -845.80165224 </i>
    <i name="e_wo_entrp">   -845.80165224 </i>
    <i name="e_0_energy">   -845.80165224 </i>
   </energy>
  </scstep>
  <scstep>
   <time name="dav">    2.38    2.40</time>
   <time name="total">    2.99    3.03</time>
   <energy>
    <i name="e_fr_energy">   -845.64065155 </i>
    <i name="e_wo_entrp">   -845.64065155 </i>
    <i name="e_0_energy">   -845.64065155 </i>
   </energy>
  </scstep>
  <scstep>
   <time name="dav">    2.23    2.25</time>
   <time name="total">    2.84    2.87</time>
   <energy>
    <i name="e_fr_energy">   -845.59034061 </i>
    <i name="e_wo_entrp">   -845.59034061 </i>
    <i name="e_0_energy">   -845.59034061 </i>
   </energy>
  </scstep>
  <scstep>
   <time name="dav">    2.29    2.32</time>
   <time name="total">    2.91    2.94</time>
   <energy>
    <i name="e_fr_energy">   -845.57746832 </i>
    <i name="e_wo_entrp">   -845.57746832 </i>
    <i name="e_0_energy">   -845.57746832 </i>
   </energy>
  </scstep>
  <scstep>
   <time name="dav">    2.23    2.25</time>
   <time name="total">    2.85    2.90</time>
   <energy>
    <i name="e_fr_energy">   -845.57670463 </i>
    <i name="e_wo_entrp">   -845.57670463 </i>
    <i name="e_0_energy">   -845.57670463 </i>
   </energy>
  </scstep>
  <scstep>
   <time name="dav">    2.23    2.25</time>
   <time name="total">    2.85    2.88</time>
   <energy>
    <i name="e_fr_energy">   -845.58230132 </i>
    <i name="e_wo_entrp">   -845.58230132 </i>
    <i name="e_0_energy">   -845.58230132 </i>
   </energy>
  </scstep>
  <scstep>
   <time name="dav">    2.24    2.25</time>
   <time name="total">    2.84    2.88</time>
   <energy>
    <i name="e_fr_energy">   -845.60531722 </i>
    <i name="e_wo_entrp">   -845.60531722 </i>
    <i name="e_0_energy">   -845.60531722 </i>
   </energy>
  </scstep>
  <scstep>
   <time name="dav">    2.15    2.17</time>
   <time name="total">    2.77    2.79</time>
   <energy>
    <i name="e_fr_energy">   -845.63106931 </i>
    <i name="e_wo_entrp">   -845.63106931 </i>
    <i name="e_0_energy">   -845.63106931 </i>
   </energy>
  </scstep>
  <scstep>
   <time name="dav">    2.27    2.29</time>
   <time name="total">    2.88    2.90</time>
   <energy>
    <i name="e_fr_energy">   -845.64487904 </i>
    <i name="e_wo_entrp">   -845.64487904 </i>
    <i name="e_0_energy">   -845.64487904 </i>
   </energy>
  </scstep>
  <scstep>
   <time name="dav">    2.25    2.27</time>
   <time name="total">    2.88    2.90</time>
   <energy>
    <i name="e_fr_energy">   -845.65053719 </i>
    <i name="e_wo_entrp">   -845.65053719 </i>
    <i name="e_0_energy">   -845.65053719 </i>
   </energy>
  </scstep>
  <scstep>
   <time name="dav">    2.24    2.26</time>
   <time name="total">    2.85    2.89</time>
   <energy>
    <i name="e_fr_energy">   -845.65264546 </i>
    <i name="e_wo_entrp">   -845.65264546 </i>
    <i name="e_0_energy">   -845.65264546 </i>
   </energy>
  </scstep>
  <scstep>
   <time name="dav">    3.71    3.74</time>
   <time name="total">    4.32    4.38</time>
   <energy>
    <i name="e_fr_energy">   -845.65342810 </i>
    <i name="e_wo_entrp">   -845.65342810 </i>
    <i name="e_0_energy">   -845.65342810 </i>
   </energy>
  </scstep>
  <scstep>
   <time name="dav">    2.25    2.27</time>
   <time name="total">    2.87    2.91</time>
   <energy>
    <i name="e_fr_energy">   -845.65372061 </i>
    <i name="e_wo_entrp">   -845.65372061 </i>
    <i name="e_0_energy">   -845.65372061 </i>
   </energy>
  </scstep>
  <scstep>
   <time name="dav">    2.17    2.19</time>
   <time name="total">    2.78    2.82</time>
   <energy>
    <i name="e_fr_energy">   -845.65390581 </i>
    <i name="e_wo_entrp">   -845.65390581 </i>
    <i name="e_0_energy">   -845.65390581 </i>
   </energy>
  </scstep>
  <scstep>
   <time name="dav">    2.21    2.23</time>
   <time name="total">    2.82    2.87</time>
   <energy>
    <i name="e_fr_energy">   -845.65401957 </i>
    <i name="e_wo_entrp">   -845.65401957 </i>
    <i name="e_0_energy">   -845.65401957 </i>
   </energy>
  </scstep>
  <scstep>
   <time name="dav">    2.24    2.26</time>
   <time name="total">    2.86    2.89</time>
   <energy>
    <i name="e_fr_energy">   -845.65409062 </i>
    <i name="e_wo_entrp">   -845.65409062 </i>
    <i name="e_0_energy">   -845.65409062 </i>
   </energy>
  </scstep>
  <scstep>
   <time name="dav">    2.28    2.30</time>
   <time name="total">    2.90    2.93</time>
   <energy>
    <i name="e_fr_energy">   -845.65412320 </i>
    <i name="e_wo_entrp">   -845.65412320 </i>
    <i name="e_0_energy">   -845.65412320 </i>
   </energy>
  </scstep>
  <scstep>
   <time name="dav">    2.25    2.27</time>
   <time name="total">    2.86    2.90</time>
   <energy>
    <i name="e_fr_energy">   -845.65414107 </i>
    <i name="e_wo_entrp">   -845.65414107 </i>
    <i name="e_0_energy">   -845.65414107 </i>
   </energy>
  </scstep>
  <scstep>
   <time name="dav">    2.30    2.32</time>
   <time name="total">    2.93    2.96</time>
   <energy>
    <i name="e_fr_energy">   -845.65414710 </i>
    <i name="e_wo_entrp">   -845.65414710 </i>
    <i name="e_0_energy">   -845.65414710 </i>
   </energy>
  </scstep>
  <scstep>
   <time name="dav">    1.96    1.98</time>
   <time name="total">    2.59    2.62</time>
   <energy>
    <i name="e_fr_energy">   -845.65414923 </i>
    <i name="e_wo_entrp">   -845.65414923 </i>
    <i name="e_0_energy">   -845.65414923 </i>
   </energy>
  </scstep>
  <scstep>
   <time name="dav">    1.97    1.99</time>
   <time name="total">    2.59    2.63</time>
   <energy>
    <i name="e_fr_energy">   -845.65415017 </i>
    <i name="e_wo_entrp">   -845.65415017 </i>
    <i name="e_0_energy">   -845.65415017 </i>
   </energy>
  </scstep>
  <scstep>
   <time name="dav">    1.69    1.71</time>
   <time name="total">    2.32    2.35</time>
   <energy>
    <i name="e_fr_energy">   -845.65415033 </i>
    <i name="e_wo_entrp">   -845.65415033 </i>
    <i name="e_0_energy">   -845.65415033 </i>
   </energy>
  </scstep>
  <scstep>
   <time name="dav">    1.67    1.68</time>
   <time name="total">    2.30    2.32</time>
   <energy>
    <i name="e_fr_energy">   -845.65415041 </i>
    <i name="e_wo_entrp">   -845.65415041 </i>
    <i name="e_0_energy">   -845.65415041 </i>
   </energy>
  </scstep>
  <scstep>
   <time name="dav">    1.77    1.78</time>
   <time name="total">    2.39    2.42</time>
   <energy>
    <i name="e_fr_energy">   -845.65415042 </i>
    <i name="e_wo_entrp">   -845.65415042 </i>
    <i name="e_0_energy">   -845.65415042 </i>
   </energy>
  </scstep>
  <scstep>
   <time name="dav">    1.74    1.76</time>
   <time name="total">    2.11    2.13</time>
   <energy>
    <i name="alphaZ">    156.50993408 </i>
    <i name="ewald">  58206.77609988 </i>
    <i name="hartreedc"> -72314.28263096 </i>
    <i name="XCdc">   1369.72409476 </i>
    <i name="pawpsdc">  44018.85023088 </i>
    <i name="pawaedc"> -44054.19213279 </i>
    <i name="eentropy">     -0.00000000 </i>
    <i name="bandstr">  -4489.97854768 </i>
    <i name="atom">  16260.93880140 </i>
    <i name="e_fr_energy">   -845.65415043 </i>
    <i name="e_wo_entrp">   -845.65415043 </i>
    <i name="e_0_energy">   -845.65415043 </i>
   </energy>
  </scstep>
  <structure>
   <crystal>
    <varray name="basis" >
     <v>      17.59966831       0.00000000       0.00000000 </v>
     <v>      -8.79983416      15.24175986       0.00000000 </v>
     <v>       0.00000000       0.00000000      19.92151445 </v>
    </varray>
    <i name="volume">   5343.94461817 </i>
    <varray name="rec_basis" >
     <v>       0.05681925       0.03280461       0.00000000 </v>
     <v>       0.00000000       0.06560922       0.00000000 </v>
     <v>       0.00000000       0.00000000       0.05019699 </v>
    </varray>
   </crystal>
   <varray name="positions" >
    <v>       0.99943010       0.00005992       0.50000000 </v>
    <v>       0.14164706       0.99871895       0.50000000 </v>
    <v>       0.28492260       0.99841663       0.50000000 </v>
    <v>       0.42850047       0.99871895       0.50000000 </v>
    <v>       0.57205839       0.00005992       0.50000000 </v>
    <v>       0.71530655       0.00214292       0.50000000 </v>
    <v>       0.85826494       0.00214292       0.50000000 </v>
    <v>       0.00043173       0.14408264       0.49962381 </v>
    <v>       0.14259355       0.14244783       0.50000000 </v>
    <v>       0.28470221       0.14112972       0.50000000 </v>
    <v>       0.42785608       0.14112972       0.50000000 </v>
    <v>       0.57128286       0.14244783       0.50000000 </v>
    <v>       0.71470329       0.14408264       0.50000000 </v>
    <v>       0.85805263       0.14467669       0.50000000 </v>
    <v>       0.00095476       0.28713011       0.50000000 </v>
    <v>       0.14372552       0.28645370       0.50000000 </v>
    <v>       0.28540977       0.28469374       0.50000000 </v>
    <v>       0.42724431       0.28306005       0.50000000 </v>
    <v>       0.57071254       0.28469374       0.50000000 </v>
    <v>       0.71415674       0.28645370       0.50000000 </v>
    <v>       0.85760392       0.28713011       0.50000000 </v>
    <v>       0.00054479       0.42966101       0.50000000 </v>
    <v>       0.14422690       0.42957551       0.50000000 </v>
    <v>       0.28730213       0.42918005       0.50000000 </v>
    <v>       0.42797654       0.42569726       0.50000000 </v>
    <v>       0.56914930       0.42569726       0.50000000 </v>
    <v>       0.71330650       0.42918005       0.50000000 </v>
    <v>       0.85677719       0.42957551       0.50000000 </v>
    <v>       0.99928255       0.57181462       0.50000000 </v>
    <v>       0.14396064       0.57181462       0.50000000 </v>
    <v>       0.28862787       0.57181625       0.50000000 </v>
    <v>       0.43313209       0.57215564       0.50000000 </v>
    <v>       0.71045212       0.57215564       0.50000000 </v>
    <v>       0.85461695       0.57181625       0.50000000 </v>
    <v>       0.99707234       0.71370518       0.50000000 </v>
    <v>       0.14255519       0.71368182       0.50000000 </v>
    <v>       0.28806142       0.71370518       0.50000000 </v>
    <v>       0.43464191       0.71382540       0.50000000 </v>
    <v>       0.58510826       0.71626937       0.50000000 </v>
    <v>       0.70258968       0.71626937       0.50000000 </v>
    <v>       0.85061206       0.71382540       0.50000000 </v>
    <v>       0.99777175       0.85613493       0.50000000 </v>
    <v>       0.14160898       0.85591288       0.50000000 </v>
    <v>       0.28573247       0.85591288       0.50000000 </v>
    <v>       0.42979175       0.85613493       0.50000000 </v>
    <v>       0.57342541       0.85758690       0.50000000 </v>
    <v>       0.71640633       0.86138410       0.50000000 </v>
    <v>       0.85559006       0.85758690       0.50000000 </v>
    <v>       0.04754270       0.09547788       0.50000000 </v>
    <v>       0.18957833       0.09405657       0.50000000 </v>
    <v>       0.33254182       0.09365506       0.50000000 </v>
    <v>       0.47590681       0.09405657       0.50000000 </v>
    <v>       0.61936376       0.09547788       0.50000000 </v>
    <v>       0.76280004       0.09719274       0.50000000 </v>
    <v>       0.90582126       0.09719274       0.50000000 </v>
    <v>       0.04854983       0.23934281       0.50000000 </v>
    <v>       0.19048138       0.23782962       0.50000000 </v>
    <v>       0.33234878       0.23634667       0.50000000 </v>
    <v>       0.47542646       0.23634667       0.50000000 </v>
    <v>       0.61877681       0.23782962       0.50000000 </v>
    <v>       0.76222155       0.23934281       0.50000000 </v>
    <v>       0.90562797       0.23982737       0.50000000 </v>
    <v>       0.04871288       0.38232824       0.50000000 </v>
    <v>       0.19188940       0.38184213       0.50000000 </v>
    <v>       0.33352206       0.38013969       0.50000000 </v>
    <v>       0.47472270       0.37801683       0.50000000 </v>
    <v>       0.61804620       0.38013969       0.50000000 </v>
    <v>       0.76138130       0.38184213       0.50000000 </v>
    <v>       0.90504393       0.38232824       0.50000000 </v>
    <v>       0.04810654       0.52478452       0.50000000 </v>
    <v>       0.19263929       0.52476864       0.50000000 </v>
    <v>       0.33696521       0.52455433       0.50000000 </v>
    <v>       0.47833704       0.52146721       0.50000000 </v>
    <v>       0.61455874       0.52146721       0.50000000 </v>
    <v>       0.75901769       0.52455433       0.50000000 </v>
    <v>       0.90355792       0.52476864       0.50000000 </v>
    <v>       0.04642473       0.66685228       0.50000000 </v>
    <v>       0.19185612       0.66685228       0.50000000 </v>
    <v>       0.33777931       0.66688794       0.50000000 </v>
    <v>       0.48615700       0.66710760       0.50000000 </v>
    <v>       0.75237918       0.66710760       0.50000000 </v>
    <v>       0.90053720       0.66688794       0.50000000 </v>
    <v>       0.04582562       0.80879365       0.50000000 </v>
    <v>       0.19009580       0.80876303       0.50000000 </v>
    <v>       0.33439660       0.80879365       0.50000000 </v>
    <v>       0.47844872       0.80897069       0.50000000 </v>
    <v>       0.62209487       0.81129474       0.50000000 </v>
    <v>       0.76062845       0.81129474       0.50000000 </v>
    <v>       0.90195054       0.80897069       0.50000000 </v>
    <v>       0.04629157       0.95154386       0.50000000 </v>
    <v>       0.18948291       0.95113037       0.50000000 </v>
    <v>       0.33307603       0.95113037       0.50000000 </v>
    <v>       0.47668087       0.95154386       0.50000000 </v>
    <v>       0.62015751       0.95313740       0.50000000 </v>
    <v>       0.76355772       0.95568687       0.50000000 </v>
    <v>       0.90440847       0.95313740       0.50000000 </v>
    <v>       0.56830873       0.56518888       0.50000000 </v>
   </varray>
  </structure>
  <varray name="forces" >
   <v>      -0.03125063       0.00063756      -0.00039259 </v>
   <v>      -0.02518979      -0.00705625      -0.00007581 </v>
   <v>      -0.00206029      -0.01259402       0.00001439 </v>
   <v>       0.02019712      -0.00964901       0.00001584 </v>
   <v>       0.03750215      -0.02669769       0.00001349 </v>
   <v>      -0.03715802      -0.05228165      -0.00007380 </v>
   <v>       0.04140040      -0.07766420      -0.00009587 </v>
   <v>       0.32525317      -0.02150338       0.10651210 </v>
   <v>      -0.05613730      -0.03146631      -0.00034285 </v>
   <v>      -0.01158956      -0.03533914       0.00048696 </v>
   <v>       0.00562697      -0.03387457      -0.00000902 </v>
   <v>       0.02499387      -0.02519973      -0.00000714 </v>
   <v>       0.00207499      -0.02517141       0.00046866 </v>
   <v>      -0.02917601      -0.03518156      -0.00026251 </v>
   <v>      -0.00033627      -0.01436010      -0.00020820 </v>
   <v>       0.01291432      -0.05968064      -0.00030135 </v>
   <v>      -0.03414181      -0.00517850      -0.00008446 </v>
   <v>      -0.00214685      -0.09494519       0.00001563 </v>
   <v>       0.02887592      -0.00271083       0.00001516 </v>
   <v>      -0.00740762      -0.04331071       0.00001433 </v>
   <v>       0.00506580      -0.02687811      -0.00007579 </v>
   <v>       0.00158646       0.00859060       0.00047660 </v>
   <v>      -0.02460378      -0.00104883      -0.00008169 </v>
   <v>       0.05886142      -0.13988307       0.00048438 </v>
   <v>      -0.11278763      -0.20098350       0.00001749 </v>
   <v>       0.11092853      -0.20045467       0.00001303 </v>
   <v>      -0.05840814      -0.13810304       0.00001291 </v>
   <v>       0.02457405      -0.00004928       0.00001350 </v>
   <v>       0.01702460       0.02985376      -0.00000829 </v>
   <v>      -0.01659477       0.02923828       0.00001420 </v>
   <v>      -0.08537178       0.12783388       0.00001517 </v>
   <v>       0.05053586       0.39558940      -0.00000788 </v>
   <v>      -0.05086629       0.39641801       0.00001371 </v>
   <v>       0.08541292       0.12895505       0.00001566 </v>
   <v>      -0.00832457       0.02394557      -0.00000699 </v>
   <v>      -0.00023683       0.02860945       0.00001571 </v>
   <v>       0.00815715       0.02239237       0.00001269 </v>
   <v>       0.08623710       0.04233231       0.00001427 </v>
   <v>       1.36419974       1.24917614       0.00000018 </v>
   <v>      -1.36401168       1.24945426       0.00000977 </v>
   <v>      -0.08613385       0.04426701       0.00001414 </v>
   <v>      -0.04507800      -0.00299202       0.00046250 </v>
   <v>      -0.01355147      -0.00251110       0.00001354 </v>
   <v>       0.01179374      -0.00391899       0.00001280 </v>
   <v>       0.04571511      -0.00822322       0.00001237 </v>
   <v>       0.15029378       0.03434971       0.00001222 </v>
   <v>       0.00154075      -0.25756474       0.00046631 </v>
   <v>      -0.15019784       0.03623446      -0.00007070 </v>
   <v>      -0.08980682       0.06939938      -0.03849045 </v>
   <v>       0.01702869       0.02134399       0.00214773 </v>
   <v>       0.00262732       0.02733823      -0.00014797 </v>
   <v>      -0.00867384       0.02330325      -0.00000474 </v>
   <v>      -0.02393015       0.03220289      -0.00014553 </v>
   <v>      -0.00610550       0.02900637       0.00208477 </v>
   <v>      -0.11356977      -0.01409065      -0.03736052 </v>
   <v>      -0.03739914       0.03463959      -0.03785059 </v>
   <v>      -0.00701980       0.01265691      -0.00156570 </v>
   <v>       0.01830236       0.03743069      -0.00004656 </v>
   <v>      -0.01395967       0.03615799      -0.00000944 </v>
   <v>       0.01031794       0.00311993      -0.00001042 </v>
   <v>      -0.01382094       0.03392303      -0.00004540 </v>
   <v>       0.00147166       0.02189538      -0.00154408 </v>
   <v>       0.00730066       0.02699985       0.00207857 </v>
   <v>       0.04424938       0.05901401       0.00210580 </v>
   <v>      -0.02137708      -0.19734100      -0.00004269 </v>
   <v>       0.00093542       0.11133326      -0.00001372 </v>
   <v>       0.02270587      -0.19983157      -0.00001209 </v>
   <v>      -0.04708277       0.05860204      -0.00001555 </v>
   <v>      -0.01080128       0.02383679      -0.00004836 </v>
   <v>      -0.00041129       0.00829815      -0.00014492 </v>
   <v>       0.02551648      -0.00708026      -0.00017570 </v>
   <v>       0.18997521       0.11337126      -0.00014810 </v>
   <v>       1.02314648      -1.56276763      -0.00000451 </v>
   <v>      -1.02267136      -1.56333511      -0.00000474 </v>
   <v>      -0.19013502       0.11220708      -0.00001199 </v>
   <v>      -0.02562758      -0.00813249      -0.00000947 </v>
   <v>       0.01000259      -0.03415522      -0.00000452 </v>
   <v>      -0.00943548      -0.03348884      -0.00000084 </v>
   <v>      -0.05850754      -0.06613769      -0.00000142 </v>
   <v>      -0.26997824       0.01026150       0.00000461 </v>
   <v>       0.26947785       0.00937277      -0.00001279 </v>
   <v>       0.05863979      -0.06745120      -0.00001007 </v>
   <v>       0.03680188      -0.01518378      -0.00014531 </v>
   <v>       0.00107951      -0.01209115       0.00000155 </v>
   <v>      -0.03526084      -0.01299646      -0.00001683 </v>
   <v>      -0.08433333      -0.01255332       0.00000151 </v>
   <v>      -0.88615066       0.24622748      -0.00016829 </v>
   <v>       0.88443090       0.24541398      -0.00005511 </v>
   <v>       0.08315149      -0.01485726      -0.00004315 </v>
   <v>       0.03485389       0.00892793       0.00207864 </v>
   <v>       0.01262057      -0.00535451      -0.00018732 </v>
   <v>      -0.00819191      -0.00397672       0.00000096 </v>
   <v>      -0.02994655       0.01748226       0.00000172 </v>
   <v>      -0.10789362       0.12087849      -0.00018748 </v>
   <v>       0.00348206       0.02456690       0.00216050 </v>
   <v>       0.09616806       0.11920890      -0.00153325 </v>
   <v>      -0.00020103      -0.11899781      -0.00002155 </v>
  </varray>
  <varray name="stress" >
   <v>     -10.60132815       0.02364426      -0.00073091 </v>
   <v>       0.02364427       3.03476862       0.00004822 </v>
   <v>      -0.00073090       0.00004823      -0.42580134 </v>
  </varray>
  <energy>
   <i name="e_fr_energy">   -845.65415043 </i>
   <i name="e_wo_entrp">   -845.65415043 </i>
   <i name="e_0_energy">     -0.00000000 </i>
  </energy>
  <time name="totalsc">   99.88  103.23</time>
  <eigenvalues>
   <array>
    <dimension dim="1">band</dimension>
    <dimension dim="2">kpoint</dimension>
    <dimension dim="3">spin</dimension>
    <field>eigene</field>
    <field>occ</field>
    <set>
     <set comment="spin 1">
      <set comment="kpoint 1">
       <r>  -22.5406    1.0000 </r>
       <r>  -22.0200    1.0000 </r>
       <r>  -21.7720    1.0000 </r>
       <r>  -21.7443    1.0000 </r>
       <r>  -21.6972    1.0000 </r>
       <r>  -21.6528    1.0000 </r>
       <r>  -21.6197    1.0000 </r>
       <r>  -21.2373    1.0000 </r>
       <r>  -21.0694    1.0000 </r>
       <r>  -21.0048    1.0000 </r>
       <r>  -20.9686    1.0000 </r>
       <r>  -20.9251    1.0000 </r>
       <r>  -20.8760    1.0000 </r>
       <r>  -20.7423    1.0000 </r>
       <r>  -20.7034    1.0000 </r>
       <r>  -20.6654    1.0000 </r>
       <r>  -20.5960    1.0000 </r>
       <r>  -20.5679    1.0000 </r>
       <r>  -20.4282    1.0000 </r>
       <r>  -19.9810    1.0000 </r>
       <r>  -19.9237    1.0000 </r>
       <r>  -19.8031    1.0000 </r>
       <r>  -19.7649    1.0000 </r>
       <r>  -19.7370    1.0000 </r>
       <r>  -19.7350    1.0000 </r>
       <r>  -19.7064    1.0000 </r>
       <r>  -19.6980    1.0000 </r>
       <r>  -19.6447    1.0000 </r>
       <r>  -19.6375    1.0000 </r>
       <r>  -19.6286    1.0000 </r>
       <r>  -19.4935    1.0000 </r>
       <r>  -19.4070    1.0000 </r>
       <r>  -19.3651    1.0000 </r>
       <r>  -19.3572    1.0000 </r>
       <r>  -19.2915    1.0000 </r>
       <r>  -19.2373    1.0000 </r>
       <r>  -19.1071    1.0000 </r>
       <r>  -18.9999    1.0000 </r>
       <r>  -18.9317    1.0000 </r>
       <r>  -18.8772    1.0000 </r>
       <r>  -18.8531    1.0000 </r>
       <r>  -18.8350    1.0000 </r>
       <r>  -18.7673    1.0000 </r>
       <r>  -18.7516    1.0000 </r>
       <r>  -18.7264    1.0000 </r>
       <r>  -18.7134    1.0000 </r>
       <r>  -18.6933    1.0000 </r>
       <r>  -18.4463    1.0000 </r>
       <r>  -14.1404    1.0000 </r>
       <r>  -13.1817    1.0000 </r>
       <r>  -13.1567    1.0000 </r>
       <r>  -13.1073    1.0000 </r>
       <r>  -13.1020    1.0000 </r>
       <r>  -13.0807    1.0000 </r>
       <r>  -13.0168    1.0000 </r>
       <r>  -12.9581    1.0000 </r>
       <r>  -12.9523    1.0000 </r>
       <r>  -12.9371    1.0000 </r>
       <r>  -12.8048    1.0000 </r>
       <r>  -12.7689    1.0000 </r>
       <r>  -12.6012    1.0000 </r>
       <r>  -12.5037    1.0000 </r>
       <r>  -12.4852    1.0000 </r>
       <r>  -12.3779    1.0000 </r>
       <r>  -12.3087    1.0000 </r>
       <r>  -12.2980    1.0000 </r>
       <r>  -12.1754    1.0000 </r>
       <r>  -11.9012    1.0000 </r>
       <r>  -11.8852    1.0000 </r>
       <r>  -11.7659    1.0000 </r>
       <r>  -11.7646    1.0000 </r>
       <r>  -11.7535    1.0000 </r>
       <r>  -11.7417    1.0000 </r>
       <r>  -11.6944    1.0000 </r>
       <r>  -11.6557    1.0000 </r>
       <r>  -11.6310    1.0000 </r>
       <r>  -11.5412    1.0000 </r>
       <r>  -11.4213    1.0000 </r>
       <r>  -11.1995    1.0000 </r>
       <r>  -11.1246    1.0000 </r>
       <r>  -11.0834    1.0000 </r>
       <r>  -11.0579    1.0000 </r>
       <r>  -10.9672    1.0000 </r>
       <r>  -10.9124    1.0000 </r>
       <r>  -10.6856    1.0000 </r>
       <r>  -10.4618    1.0000 </r>
       <r>  -10.4307    1.0000 </r>
       <r>  -10.3514    1.0000 </r>
       <r>  -10.2535    1.0000 </r>
       <r>  -10.2061    1.0000 </r>
       <r>   -9.8907    1.0000 </r>
       <r>   -9.7689    1.0000 </r>
       <r>   -9.7631    1.0000 </r>
       <r>   -9.7240    1.0000 </r>
       <r>   -9.6762    1.0000 </r>
       <r>   -9.5870    1.0000 </r>
       <r>   -9.5421    1.0000 </r>
       <r>   -9.4977    1.0000 </r>
       <r>   -9.4634    1.0000 </r>
       <r>   -9.3526    1.0000 </r>
       <r>   -9.3454    1.0000 </r>
       <r>   -9.2881    1.0000 </r>
       <r>   -9.2611    1.0000 </r>
       <r>   -9.2561    1.0000 </r>
       <r>   -9.2511    1.0000 </r>
       <r>   -9.2370    1.0000 </r>
       <r>   -9.2251    1.0000 </r>
       <r>   -9.2221    1.0000 </r>
       <r>   -9.2079    1.0000 </r>
       <r>   -9.2020    1.0000 </r>
       <r>   -9.1990    1.0000 </r>
       <r>   -9.1959    1.0000 </r>
       <r>   -9.1569    1.0000 </r>
       <r>   -9.1346    1.0000 </r>
       <r>   -9.1101    1.0000 </r>
       <r>   -9.1086    1.0000 </r>
       <r>   -9.1016    1.0000 </r>
       <r>   -9.0464    1.0000 </r>
       <r>   -8.9941    1.0000 </r>
       <r>   -8.8459    1.0000 </r>
       <r>   -8.7972    1.0000 </r>
       <r>   -8.6547    1.0000 </r>
       <r>   -8.5056    1.0000 </r>
       <r>   -8.4803    1.0000 </r>
       <r>   -8.4427    1.0000 </r>
       <r>   -8.3290    1.0000 </r>
       <r>   -8.2229    1.0000 </r>
       <r>   -8.2007    1.0000 </r>
       <r>   -8.1977    1.0000 </r>
       <r>   -8.1702    1.0000 </r>
       <r>   -8.1487    1.0000 </r>
       <r>   -8.1217    1.0000 </r>
       <r>   -8.0379    1.0000 </r>
       <r>   -7.9691    1.0000 </r>
       <r>   -7.9510    1.0000 </r>
       <r>   -7.8723    1.0000 </r>
       <r>   -7.8480    1.0000 </r>
       <r>   -7.8458    1.0000 </r>
       <r>   -7.8044    1.0000 </r>
       <r>   -7.7989    1.0000 </r>
       <r>   -7.7963    1.0000 </r>
       <r>   -7.7381    1.0000 </r>
       <r>   -7.7354    1.0000 </r>
       <r>   -7.7123    1.0000 </r>
       <r>   -7.6793    1.0000 </r>
       <r>   -7.6757    1.0000 </r>
       <r>   -7.6651    1.0000 </r>
       <r>   -7.6377    1.0000 </r>
       <r>   -7.6328    1.0000 </r>
       <r>   -7.4416    1.0000 </r>
       <r>   -7.4364    1.0000 </r>
       <r>   -7.4281    1.0000 </r>
       <r>   -7.3810    1.0000 </r>
       <r>   -7.3590    1.0000 </r>
       <r>   -7.2747    1.0000 </r>
       <r>   -6.8284    1.0000 </r>
       <r>   -6.7585    1.0000 </r>
       <r>   -6.6222    1.0000 </r>
       <r>   -6.6055    1.0000 </r>
       <r>   -6.5424    1.0000 </r>
       <r>   -6.5392    1.0000 </r>
       <r>   -6.5046    1.0000 </r>
       <r>   -6.4875    1.0000 </r>
       <r>   -6.4577    1.0000 </r>
       <r>   -6.4565    1.0000 </r>
       <r>   -6.4406    1.0000 </r>
       <r>   -6.4392    1.0000 </r>
       <r>   -6.4096    1.0000 </r>
       <r>   -6.4044    1.0000 </r>
       <r>   -6.3608    1.0000 </r>
       <r>   -6.3436    1.0000 </r>
       <r>   -6.3185    1.0000 </r>
       <r>   -6.1114    1.0000 </r>
       <r>   -5.9698    1.0000 </r>
       <r>   -5.9253    1.0000 </r>
       <r>   -5.8868    1.0000 </r>
       <r>   -5.8789    1.0000 </r>
       <r>   -5.8619    1.0000 </r>
       <r>   -5.7833    1.0000 </r>
       <r>   -5.7777    1.0000 </r>
       <r>   -5.5272    1.0000 </r>
       <r>   -5.2212    1.0000 </r>
       <r>   -5.1980    1.0000 </r>
       <r>   -5.1969    1.0000 </r>
       <r>   -5.1412    1.0000 </r>
       <r>   -5.1332    1.0000 </r>
       <r>   -5.1027    1.0000 </r>
       <r>   -5.0001    1.0000 </r>
       <r>   -4.9435    1.0000 </r>
       <r>   -4.9173    1.0000 </r>
       <r>   -4.9064    1.0000 </r>
       <r>   -4.8991    1.0000 </r>
       <r>   -4.7339    1.0000 </r>
       <r>   -1.3160    1.0000 </r>
       <r>   -1.2030    0.0000 </r>
       <r>    0.0587    0.0000 </r>
       <r>    0.2050    0.0000 </r>
       <r>    0.2402    0.0000 </r>
       <r>    0.2588    0.0000 </r>
       <r>    0.2620    0.0000 </r>
       <r>    0.3042    0.0000 </r>
       <r>    0.3055    0.0000 </r>
       <r>    0.3787    0.0000 </r>
       <r>    0.3946    0.0000 </r>
       <r>    0.4343    0.0000 </r>
       <r>    0.4790    0.0000 </r>
       <r>    0.5268    0.0000 </r>
       <r>    0.6071    0.0000 </r>
       <r>    0.7477    0.0000 </r>
       <r>    0.7483    0.0000 </r>
       <r>    0.7772    0.0000 </r>
       <r>    0.8066    0.0000 </r>
       <r>    0.8126    0.0000 </r>
       <r>    0.8273    0.0000 </r>
       <r>    0.8385    0.0000 </r>
       <r>    0.8591    0.0000 </r>
       <r>    0.8698    0.0000 </r>
       <r>    0.9820    0.0000 </r>
       <r>    1.0196    0.0000 </r>
       <r>    1.0601    0.0000 </r>
       <r>    1.1189    0.0000 </r>
       <r>    1.4953    0.0000 </r>
       <r>    1.6733    0.0000 </r>
       <r>    1.6974    0.0000 </r>
       <r>    1.7067    0.0000 </r>
       <r>    1.7235    0.0000 </r>
       <r>    1.7402    0.0000 </r>
       <r>    1.7438    0.0000 </r>
       <r>    1.8050    0.0000 </r>
       <r>    1.8073    0.0000 </r>
       <r>    1.8466    0.0000 </r>
       <r>    1.8481    0.0000 </r>
       <r>    1.8792    0.0000 </r>
       <r>    1.8812    0.0000 </r>
       <r>    1.9041    0.0000 </r>
       <r>    1.9068    0.0000 </r>
       <r>    1.9291    0.0000 </r>
       <r>    1.9836    0.0000 </r>
       <r>    2.0300    0.0000 </r>
       <r>    2.1072    0.0000 </r>
       <r>    2.1153    0.0000 </r>
       <r>    2.1295    0.0000 </r>
       <r>    2.1311    0.0000 </r>
       <r>    2.1398    0.0000 </r>
      </set>
     </set>
    </set>
   </array>
  </eigenvalues>
  <separator name="orbital magnetization" >
   <v name="MAGDIPOLOUT">      0.00000000      0.00000000      0.00000000</v>
  </separator>
  <dos>
   <i name="efermi">     -1.25272178 </i>
   <total>
    <array>
     <dimension dim="1">gridpoints</dimension>
     <dimension dim="2">spin</dimension>
     <field>energy</field>
     <field>total</field>
     <field>integrated</field>
     <set>
      <set comment="spin 1">
       <r>   -23.7746     0.0000     0.0000 </r>
       <r>   -23.6841     0.0000     0.0000 </r>
       <r>   -23.5936     0.0000     0.0000 </r>
       <r>   -23.5031     0.0000     0.0000 </r>
       <r>   -23.4126     0.0000     0.0000 </r>
       <r>   -23.3221     0.0000     0.0000 </r>
       <r>   -23.2317     0.0000     0.0000 </r>
       <r>   -23.1412     0.0000     0.0000 </r>
       <r>   -23.0507     0.0000     0.0000 </r>
       <r>   -22.9602     0.0000     0.0000 </r>
       <r>   -22.8697     0.0000     0.0000 </r>
       <r>   -22.7792     0.0000     0.0000 </r>
       <r>   -22.6887     0.0000     0.0000 </r>
       <r>   -22.5982     0.0000     0.0000 </r>
       <r>   -22.5077    22.1007     2.0000 </r>
       <r>   -22.4172     0.0000     2.0000 </r>
       <r>   -22.3267     0.0000     2.0000 </r>
       <r>   -22.2362     0.0000     2.0000 </r>
       <r>   -22.1457     0.0000     2.0000 </r>
       <r>   -22.0552     0.0000     2.0000 </r>
       <r>   -21.9647    22.1007     4.0000 </r>
       <r>   -21.8742     0.0000     4.0000 </r>
       <r>   -21.7837     1.0715     4.0970 </r>
       <r>   -21.6932    58.8709     9.4245 </r>
       <r>   -21.6027    44.0155    13.9832 </r>
       <r>   -21.5123     0.0000    14.0000 </r>
       <r>   -21.4218     0.0000    14.0000 </r>
       <r>   -21.3313     0.0000    14.0000 </r>
       <r>   -21.2408     6.9106    14.6254 </r>
       <r>   -21.1503     0.0000    16.0000 </r>
       <r>   -21.0598    20.2043    17.8284 </r>
       <r>   -20.9693    32.3103    20.9239 </r>
       <r>   -20.8788    29.7943    24.6962 </r>
       <r>   -20.7883     0.0000    26.0000 </r>
       <r>   -20.6978    39.4773    29.5725 </r>
       <r>   -20.6073    23.3287    32.1111 </r>
       <r>   -20.5168    42.9734    36.0000 </r>
       <r>   -20.4263    13.3945    37.2121 </r>
       <r>   -20.3358     0.0000    38.0000 </r>
       <r>   -20.2453     0.0000    38.0000 </r>
       <r>   -20.1548     0.0000    38.0000 </r>
       <r>   -20.0643     0.0000    38.0000 </r>
       <r>   -19.9738    18.6508    39.6878 </r>
       <r>   -19.8833    22.1007    42.0000 </r>
       <r>   -19.7929    20.4799    43.8533 </r>
       <r>   -19.7024    88.1450    51.9767 </r>
       <r>   -19.6119    66.0998    59.9817 </r>
       <r>   -19.5214     0.0009    60.0001 </r>
       <r>   -19.4309    22.1080    62.0007 </r>
       <r>   -19.3404    66.0977    67.9822 </r>
       <r>   -19.2499    22.9293    70.0750 </r>
       <r>   -19.1594    21.2721    72.0000 </r>
       <r>   -19.0689    22.1007    74.0000 </r>
       <r>   -18.9784    22.0750    75.9977 </r>
       <r>   -18.8879    23.5432    78.1305 </r>
       <r>   -18.7974    64.8599    84.0000 </r>
       <r>   -18.7069    84.9415    91.6868 </r>
       <r>   -18.6164    21.4967    94.0000 </r>
       <r>   -18.5259     0.0000    94.0000 </r>
       <r>   -18.4354    20.7220    95.8752 </r>
       <r>   -18.3449     0.0000    96.0000 </r>
       <r>   -18.2544     0.0000    96.0000 </r>
       <r>   -18.1639     0.0000    96.0000 </r>
       <r>   -18.0734     0.0000    96.0000 </r>
       <r>   -17.9830     0.0000    96.0000 </r>
       <r>   -17.8925     0.0000    96.0000 </r>
       <r>   -17.8020     0.0000    96.0000 </r>
       <r>   -17.7115     0.0000    96.0000 </r>
       <r>   -17.6210     0.0000    96.0000 </r>
       <r>   -17.5305     0.0000    96.0000 </r>
       <r>   -17.4400     0.0000    96.0000 </r>
       <r>   -17.3495     0.0000    96.0000 </r>
       <r>   -17.2590     0.0000    96.0000 </r>
       <r>   -17.1685     0.0000    96.0000 </r>
       <r>   -17.0780     0.0000    96.0000 </r>
       <r>   -16.9875     0.0000    96.0000 </r>
       <r>   -16.8970     0.0000    96.0000 </r>
       <r>   -16.8065     0.0000    96.0000 </r>
       <r>   -16.7160     0.0000    96.0000 </r>
       <r>   -16.6255     0.0000    96.0000 </r>
       <r>   -16.5350     0.0000    96.0000 </r>
       <r>   -16.4445     0.0000    96.0000 </r>
       <r>   -16.3540     0.0000    96.0000 </r>
       <r>   -16.2636     0.0000    96.0000 </r>
       <r>   -16.1731     0.0000    96.0000 </r>
       <r>   -16.0826     0.0000    96.0000 </r>
       <r>   -15.9921     0.0000    96.0000 </r>
       <r>   -15.9016     0.0000    96.0000 </r>
       <r>   -15.8111     0.0000    96.0000 </r>
       <r>   -15.7206     0.0000    96.0000 </r>
       <r>   -15.6301     0.0000    96.0000 </r>
       <r>   -15.5396     0.0000    96.0000 </r>
       <r>   -15.4491     0.0000    96.0000 </r>
       <r>   -15.3586     0.0000    96.0000 </r>
       <r>   -15.2681     0.0000    96.0000 </r>
       <r>   -15.1776     0.0000    96.0000 </r>
       <r>   -15.0871     0.0000    96.0000 </r>
       <r>   -14.9966     0.0000    96.0000 </r>
       <r>   -14.9061     0.0000    96.0000 </r>
       <r>   -14.8156     0.0000    96.0000 </r>
       <r>   -14.7251     0.0000    96.0000 </r>
       <r>   -14.6346     0.0000    96.0000 </r>
       <r>   -14.5442     0.0000    96.0000 </r>
       <r>   -14.4537     0.0000    96.0000 </r>
       <r>   -14.3632     0.0000    96.0000 </r>
       <r>   -14.2727     0.0000    96.0000 </r>
       <r>   -14.1822     0.0000    96.0000 </r>
       <r>   -14.0917    22.1007    98.0000 </r>
       <r>   -14.0012     0.0000    98.0000 </r>
       <r>   -13.9107     0.0000    98.0000 </r>
       <r>   -13.8202     0.0000    98.0000 </r>
       <r>   -13.7297     0.0000    98.0000 </r>
       <r>   -13.6392     0.0000    98.0000 </r>
       <r>   -13.5487     0.0000    98.0000 </r>
       <r>   -13.4582     0.0000    98.0000 </r>
       <r>   -13.3677     0.0000    98.0000 </r>
       <r>   -13.2772     0.0000    98.0000 </r>
       <r>   -13.1867     5.2521    98.4753 </r>
       <r>   -13.0962    60.7358   105.4963 </r>
       <r>   -13.0057    42.5874   109.8818 </r>
       <r>   -12.9152    66.2800   115.9980 </r>
       <r>   -12.8247     0.0529   116.0048 </r>
       <r>   -12.7343    44.1485   120.0000 </r>
       <r>   -12.6438     0.0000   120.0000 </r>
       <r>   -12.5533    22.1007   122.0000 </r>
       <r>   -12.4628    44.1848   125.9985 </r>
       <r>   -12.3723    17.3530   127.5704 </r>
       <r>   -12.2818    43.9610   131.9782 </r>
       <r>   -12.1913     0.2725   132.0247 </r>
       <r>   -12.1008    21.8282   134.0000 </r>
       <r>   -12.0103     0.0000   134.0000 </r>
       <r>   -11.9198     0.0925   134.0084 </r>
       <r>   -11.8293    44.1090   138.0000 </r>
       <r>   -11.7388    80.4389   145.2793 </r>
       <r>   -11.6483    41.0616   149.7159 </r>
       <r>   -11.5578    22.1479   152.0187 </r>
       <r>   -11.4673    21.8936   154.0000 </r>
       <r>   -11.3768    22.1007   156.0000 </r>
       <r>   -11.2863     0.0000   156.0000 </r>
       <r>   -11.1958    15.4262   157.3960 </r>
       <r>   -11.1053    22.0521   159.9956 </r>
       <r>   -11.0149    44.1799   164.0000 </r>
       <r>   -10.9244    23.1125   166.0916 </r>
       <r>   -10.8339    21.0890   168.0000 </r>
       <r>   -10.7434     0.0000   168.0000 </r>
       <r>   -10.6529    22.1007   170.0000 </r>
       <r>   -10.5624     0.0000   170.0000 </r>
       <r>   -10.4719     1.7135   170.1551 </r>
       <r>   -10.3814    22.1010   174.0000 </r>
       <r>   -10.2909    22.1005   176.0000 </r>
       <r>   -10.2004    39.5816   179.5819 </r>
       <r>   -10.1099     0.0000   180.0000 </r>
       <r>   -10.0194     0.0000   180.0000 </r>
       <r>    -9.9289     0.0000   180.0000 </r>
       <r>    -9.8384    22.1007   182.0000 </r>
       <r>    -9.7479    43.8186   185.9654 </r>
       <r>    -9.6574    44.1048   189.9920 </r>
       <r>    -9.5669    22.0544   191.9958 </r>
       <r>    -9.4764    44.8816   196.0620 </r>
       <r>    -9.3859    21.3859   198.0000 </r>
       <r>    -9.2954    47.5029   202.2988 </r>
       <r>    -9.2050   161.0961   218.5784 </r>
       <r>    -9.1145    55.3470   229.0086 </r>
       <r>    -9.0240    43.4224   235.9985 </r>
       <r>    -8.9335    22.1004   238.0000 </r>
       <r>    -8.8430    14.5719   239.3187 </r>
       <r>    -8.7525    22.1007   242.0000 </r>
       <r>    -8.6620     3.3283   242.3012 </r>
       <r>    -8.5715     0.0000   244.0000 </r>
       <r>    -8.4810    32.3384   246.9265 </r>
       <r>    -8.3905    22.1007   250.0000 </r>
       <r>    -8.3000    22.1003   252.0000 </r>
       <r>    -8.2095    24.8242   254.2465 </r>
       <r>    -8.1190    79.6178   263.2989 </r>
       <r>    -8.0285    20.0577   265.8151 </r>
       <r>    -7.9380    43.4559   269.9325 </r>
       <r>    -7.8475    42.5437   273.8500 </r>
       <r>    -7.7570    66.4091   282.0097 </r>
       <r>    -7.6665   116.6874   292.5693 </r>
       <r>    -7.5760    44.2009   298.0000 </r>
       <r>    -7.4856     0.0000   298.0000 </r>
       <r>    -7.3951    66.8249   304.0473 </r>
       <r>    -7.3046    43.6789   308.0000 </r>
       <r>    -7.2141    22.1004   310.0000 </r>
       <r>    -7.1236     0.0000   310.0000 </r>
       <r>    -7.0331     0.0000   310.0000 </r>
       <r>    -6.9426     0.0000   310.0000 </r>
       <r>    -6.8521     0.0090   310.0008 </r>
       <r>    -6.7616    29.4101   312.6623 </r>
       <r>    -6.6711     0.0000   314.0000 </r>
       <r>    -6.5806    44.1967   317.9996 </r>
       <r>    -6.4901    73.7709   324.6759 </r>
       <r>    -6.3996   125.4153   337.3494 </r>
       <r>    -6.3091    64.2394   343.8133 </r>
       <r>    -6.2186     0.0000   344.0000 </r>
       <r>    -6.1281     0.2010   344.0182 </r>
       <r>    -6.0376    21.8997   346.0000 </r>
       <r>    -5.9471    22.1081   348.0007 </r>
       <r>    -5.8566    83.3383   355.5437 </r>
       <r>    -5.7662    42.8972   359.8820 </r>
       <r>    -5.6757     0.0000   360.0000 </r>
       <r>    -5.5852     0.0000   360.0000 </r>
       <r>    -5.4947    22.1007   362.0000 </r>
       <r>    -5.4042     0.0000   362.0000 </r>
       <r>    -5.3137     0.0000   362.0000 </r>
       <r>    -5.2232     8.6311   362.7811 </r>
       <r>    -5.1327    75.4596   370.8293 </r>
       <r>    -5.0422    22.1005   374.0000 </r>
       <r>    -4.9517    24.8522   376.2490 </r>
       <r>    -4.8612    66.3021   384.0000 </r>
       <r>    -4.7707     0.0000   384.0000 </r>
       <r>    -4.6802    22.1007   386.0000 </r>
       <r>    -4.5897     0.0000   386.0000 </r>
       <r>    -4.4992     0.0000   386.0000 </r>
       <r>    -4.4087     0.0000   386.0000 </r>
       <r>    -4.3182     0.0000   386.0000 </r>
       <r>    -4.2277     0.0000   386.0000 </r>
       <r>    -4.1372     0.0000   386.0000 </r>
       <r>    -4.0467     0.0000   386.0000 </r>
       <r>    -3.9563     0.0000   386.0000 </r>
       <r>    -3.8658     0.0000   386.0000 </r>
       <r>    -3.7753     0.0000   386.0000 </r>
       <r>    -3.6848     0.0000   386.0000 </r>
       <r>    -3.5943     0.0000   386.0000 </r>
       <r>    -3.5038     0.0000   386.0000 </r>
       <r>    -3.4133     0.0000   386.0000 </r>
       <r>    -3.3228     0.0000   386.0000 </r>
       <r>    -3.2323     0.0000   386.0000 </r>
       <r>    -3.1418     0.0000   386.0000 </r>
       <r>    -3.0513     0.0000   386.0000 </r>
       <r>    -2.9608     0.0000   386.0000 </r>
       <r>    -2.8703     0.0000   386.0000 </r>
       <r>    -2.7798     0.0000   386.0000 </r>
       <r>    -2.6893     0.0000   386.0000 </r>
       <r>    -2.5988     0.0000   386.0000 </r>
       <r>    -2.5083     0.0000   386.0000 </r>
       <r>    -2.4178     0.0000   386.0000 </r>
       <r>    -2.3273     0.0000   386.0000 </r>
       <r>    -2.2369     0.0000   386.0000 </r>
       <r>    -2.1464     0.0000   386.0000 </r>
       <r>    -2.0559     0.0000   386.0000 </r>
       <r>    -1.9654     0.0000   386.0000 </r>
       <r>    -1.8749     0.0000   386.0000 </r>
       <r>    -1.7844     0.0000   386.0000 </r>
       <r>    -1.6939     0.0000   386.0000 </r>
       <r>    -1.6034     0.0000   386.0000 </r>
       <r>    -1.5129     0.0000   386.0000 </r>
       <r>    -1.4224     0.0000   386.0000 </r>
       <r>    -1.3319     0.2676   386.0242 </r>
       <r>    -1.2414    21.8331   388.0000 </r>
       <r>    -1.1509    22.1007   390.0000 </r>
       <r>    -1.0604     0.0000   390.0000 </r>
       <r>    -0.9699     0.0000   390.0000 </r>
       <r>    -0.8794     0.0000   390.0000 </r>
       <r>    -0.7889     0.0000   390.0000 </r>
       <r>    -0.6984     0.0000   390.0000 </r>
       <r>    -0.6079     0.0000   390.0000 </r>
       <r>    -0.5175     0.0000   390.0000 </r>
       <r>    -0.4270     0.0000   390.0000 </r>
       <r>    -0.3365     0.0000   390.0000 </r>
       <r>    -0.2460     0.0000   390.0000 </r>
       <r>    -0.1555     0.0000   390.0000 </r>
       <r>    -0.0650     0.0000   390.0000 </r>
       <r>     0.0255     0.0000   390.0000 </r>
       <r>     0.1160    22.1007   392.0000 </r>
       <r>     0.2065    12.9521   393.1721 </r>
       <r>     0.2970    72.2812   400.5411 </r>
       <r>     0.3875    23.2203   406.1013 </r>
       <r>     0.4780    31.9075   410.8875 </r>
       <r>     0.5685    22.1007   414.0000 </r>
       <r>     0.6590    22.1007   416.0000 </r>
       <r>     0.7495    25.8027   418.3350 </r>
       <r>     0.8400   100.5447   429.0989 </r>
       <r>     0.9305    44.1259   434.0000 </r>
       <r>     1.0210    34.8148   437.1506 </r>
       <r>     1.1115    25.3201   440.2913 </r>
       <r>     1.2020     0.0000   442.0000 </r>
       <r>     1.2924     0.0000   442.0000 </r>
       <r>     1.3829     0.0000   442.0000 </r>
       <r>     1.4734     0.0220   442.0020 </r>
       <r>     1.5639    22.0787   444.0000 </r>
       <r>     1.6544     0.0829   444.0075 </r>
       <r>     1.7449   117.3127   454.6237 </r>
       <r>     1.8354    46.2629   460.1866 </r>
       <r>     1.9259   137.6933   472.6472 </r>
       <r>     2.0164    22.6950   476.0538 </r>
       <r>     2.1069    34.8726   479.2096 </r>
       <r>     2.1974    66.2800   488.0000 </r>
       <r>     2.2879     0.0000   488.0000 </r>
       <r>     2.3784     0.0000   488.0000 </r>
       <r>     2.4689     0.0000   488.0000 </r>
       <r>     2.5594     0.0000   488.0000 </r>
       <r>     2.6499     0.0000   488.0000 </r>
       <r>     2.7404     0.0000   488.0000 </r>
       <r>     2.8309     0.0000   488.0000 </r>
       <r>     2.9214     0.0000   488.0000 </r>
       <r>     3.0118     0.0000   488.0000 </r>
       <r>     3.1023     0.0000   488.0000 </r>
       <r>     3.1928     0.0000   488.0000 </r>
       <r>     3.2833     0.0000   488.0000 </r>
       <r>     3.3738     0.0000   488.0000 </r>
      </set>
     </set>
    </array>
   </total>
  </dos>
 </calculation>
 <structure name="finalpos" >
  <crystal>
   <varray name="basis" >
    <v>      17.59966831       0.00000000       0.00000000 </v>
    <v>      -8.79983416      15.24175986       0.00000000 </v>
    <v>       0.00000000       0.00000000      19.92151445 </v>
   </varray>
   <i name="volume">   5343.94461817 </i>
   <varray name="rec_basis" >
    <v>       0.05681925       0.03280461       0.00000000 </v>
    <v>       0.00000000       0.06560922       0.00000000 </v>
    <v>       0.00000000       0.00000000       0.05019699 </v>
   </varray>
  </crystal>
  <varray name="positions" >
   <v>       0.99943010       0.00005992       0.50000000 </v>
   <v>       0.14164706       0.99871895       0.50000000 </v>
   <v>       0.28492260       0.99841663       0.50000000 </v>
   <v>       0.42850047       0.99871895       0.50000000 </v>
   <v>       0.57205839       0.00005992       0.50000000 </v>
   <v>       0.71530655       0.00214292       0.50000000 </v>
   <v>       0.85826494       0.00214292       0.50000000 </v>
   <v>       0.00043173       0.14408264       0.49962381 </v>
   <v>       0.14259355       0.14244783       0.50000000 </v>
   <v>       0.28470221       0.14112972       0.50000000 </v>
   <v>       0.42785608       0.14112972       0.50000000 </v>
   <v>       0.57128286       0.14244783       0.50000000 </v>
   <v>       0.71470329       0.14408264       0.50000000 </v>
   <v>       0.85805263       0.14467669       0.50000000 </v>
   <v>       0.00095476       0.28713011       0.50000000 </v>
   <v>       0.14372552       0.28645370       0.50000000 </v>
   <v>       0.28540977       0.28469374       0.50000000 </v>
   <v>       0.42724431       0.28306005       0.50000000 </v>
   <v>       0.57071254       0.28469374       0.50000000 </v>
   <v>       0.71415674       0.28645370       0.50000000 </v>
   <v>       0.85760392       0.28713011       0.50000000 </v>
   <v>       0.00054479       0.42966101       0.50000000 </v>
   <v>       0.14422690       0.42957551       0.50000000 </v>
   <v>       0.28730213       0.42918005       0.50000000 </v>
   <v>       0.42797654       0.42569726       0.50000000 </v>
   <v>       0.56914930       0.42569726       0.50000000 </v>
   <v>       0.71330650       0.42918005       0.50000000 </v>
   <v>       0.85677719       0.42957551       0.50000000 </v>
   <v>       0.99928255       0.57181462       0.50000000 </v>
   <v>       0.14396064       0.57181462       0.50000000 </v>
   <v>       0.28862787       0.57181625       0.50000000 </v>
   <v>       0.43313209       0.57215564       0.50000000 </v>
   <v>       0.71045212       0.57215564       0.50000000 </v>
   <v>       0.85461695       0.57181625       0.50000000 </v>
   <v>       0.99707234       0.71370518       0.50000000 </v>
   <v>       0.14255519       0.71368182       0.50000000 </v>
   <v>       0.28806142       0.71370518       0.50000000 </v>
   <v>       0.43464191       0.71382540       0.50000000 </v>
   <v>       0.58510826       0.71626937       0.50000000 </v>
   <v>       0.70258968       0.71626937       0.50000000 </v>
   <v>       0.85061206       0.71382540       0.50000000 </v>
   <v>       0.99777175       0.85613493       0.50000000 </v>
   <v>       0.14160898       0.85591288       0.50000000 </v>
   <v>       0.28573247       0.85591288       0.50000000 </v>
   <v>       0.42979175       0.85613493       0.50000000 </v>
   <v>       0.57342541       0.85758690       0.50000000 </v>
   <v>       0.71640633       0.86138410       0.50000000 </v>
   <v>       0.85559006       0.85758690       0.50000000 </v>
   <v>       0.04754270       0.09547788       0.50000000 </v>
   <v>       0.18957833       0.09405657       0.50000000 </v>
   <v>       0.33254182       0.09365506       0.50000000 </v>
   <v>       0.47590681       0.09405657       0.50000000 </v>
   <v>       0.61936376       0.09547788       0.50000000 </v>
   <v>       0.76280004       0.09719274       0.50000000 </v>
   <v>       0.90582126       0.09719274       0.50000000 </v>
   <v>       0.04854983       0.23934281       0.50000000 </v>
   <v>       0.19048138       0.23782962       0.50000000 </v>
   <v>       0.33234878       0.23634667       0.50000000 </v>
   <v>       0.47542646       0.23634667       0.50000000 </v>
   <v>       0.61877681       0.23782962       0.50000000 </v>
   <v>       0.76222155       0.23934281       0.50000000 </v>
   <v>       0.90562797       0.23982737       0.50000000 </v>
   <v>       0.04871288       0.38232824       0.50000000 </v>
   <v>       0.19188940       0.38184213       0.50000000 </v>
   <v>       0.33352206       0.38013969       0.50000000 </v>
   <v>       0.47472270       0.37801683       0.50000000 </v>
   <v>       0.61804620       0.38013969       0.50000000 </v>
   <v>       0.76138130       0.38184213       0.50000000 </v>
   <v>       0.90504393       0.38232824       0.50000000 </v>
   <v>       0.04810654       0.52478452       0.50000000 </v>
   <v>       0.19263929       0.52476864       0.50000000 </v>
   <v>       0.33696521       0.52455433       0.50000000 </v>
   <v>       0.47833704       0.52146721       0.50000000 </v>
   <v>       0.61455874       0.52146721       0.50000000 </v>
   <v>       0.75901769       0.52455433       0.50000000 </v>
   <v>       0.90355792       0.52476864       0.50000000 </v>
   <v>       0.04642473       0.66685228       0.50000000 </v>
   <v>       0.19185612       0.66685228       0.50000000 </v>
   <v>       0.33777931       0.66688794       0.50000000 </v>
   <v>       0.48615700       0.66710760       0.50000000 </v>
   <v>       0.75237918       0.66710760       0.50000000 </v>
   <v>       0.90053720       0.66688794       0.50000000 </v>
   <v>       0.04582562       0.80879365       0.50000000 </v>
   <v>       0.19009580       0.80876303       0.50000000 </v>
   <v>       0.33439660       0.80879365       0.50000000 </v>
   <v>       0.47844872       0.80897069       0.50000000 </v>
   <v>       0.62209487       0.81129474       0.50000000 </v>
   <v>       0.76062845       0.81129474       0.50000000 </v>
   <v>       0.90195054       0.80897069       0.50000000 </v>
   <v>       0.04629157       0.95154386       0.50000000 </v>
   <v>       0.18948291       0.95113037       0.50000000 </v>
   <v>       0.33307603       0.95113037       0.50000000 </v>
   <v>       0.47668087       0.95154386       0.50000000 </v>
   <v>       0.62015751       0.95313740       0.50000000 </v>
   <v>       0.76355772       0.95568687       0.50000000 </v>
   <v>       0.90440847       0.95313740       0.50000000 </v>
   <v>       0.56830873       0.56518888       0.50000000 </v>
  </varray>
 </structure>
</modeling>
