<?xml version="1.0" encoding="ISO-8859-1"?>
<modeling>
 <generator>
  <i name="program" type="string">vasp </i>
  <i name="version" type="string">5.4.4.18Apr17-6-g9f103f2a35  </i>
  <i name="subversion" type="string">(build Oct 18 2020 22:16:12) gamma-only         parallel </i>
  <i name="platform" type="string">UA-vaughan-2020a </i>
  <i name="date" type="string">2023 03 21 </i>
  <i name="time" type="string">23:35:19 </i>
 </generator>
 <incar>
  <i type="string" name="PREC">accurate</i>
  <i type="int" name="IALGO">    38</i>
  <i type="logical" name="ADDGRID"> T  </i>
  <i type="int" name="NELMIN">     5</i>
  <i type="int" name="IBRION">    -1</i>
  <i name="EDIFF">      0.00000001</i>
  <i name="EDIFFG">     -0.00000001</i>
  <i type="int" name="NSW">     0</i>
  <i type="int" name="ISIF">     2</i>
  <i name="ENCUT">    500.00000000</i>
  <i type="logical" name="LREAL"> F  </i>
  <i type="int" name="ISMEAR">     0</i>
  <i name="SIGMA">      0.01000000</i>
  <i type="logical" name="LWAVE"> F  </i>
  <i type="logical" name="LCHARG"> F  </i>
  <v type="int" name="KPOINT_BSE">    -1     0     0     0</v>
 </incar>
 <structure name="primitive_cell" >
  <crystal>
   <varray name="basis" >
    <v>      17.59966831       0.00000000       0.00000000 </v>
    <v>      -8.79983416      15.24175986       0.00000000 </v>
    <v>       0.00000000       0.00000000      19.92151445 </v>
   </varray>
   <i name="volume">   5343.94461817 </i>
   <varray name="rec_basis" >
    <v>       0.05681925       0.03280461       0.00000000 </v>
    <v>       0.00000000       0.06560922       0.00000000 </v>
    <v>       0.00000000       0.00000000       0.05019699 </v>
   </varray>
  </crystal>
  <varray name="positions" >
   <v>      -0.00056990       0.00005992      -0.50000000 </v>
   <v>      -0.09559153      -0.04686260      -0.50000000 </v>
   <v>       0.04629157      -0.04845614      -0.50000000 </v>
   <v>       0.04754270       0.09547788      -0.50000000 </v>
   <v>      -0.14173506       0.00214292      -0.50000000 </v>
   <v>       0.14259355       0.14244783      -0.50000000 </v>
   <v>       0.14164706      -0.00128105      -0.50000000 </v>
   <v>      -0.00222825      -0.14386507      -0.50000000 </v>
   <v>      -0.14440994      -0.14241310      -0.50000000 </v>
   <v>       0.00080792       0.14408264      -0.50000000 </v>
   <v>       0.18957833       0.09405657      -0.50000000 </v>
   <v>      -0.09417874       0.09719274      -0.50000000 </v>
   <v>      -0.09804946      -0.19102931      -0.50000000 </v>
   <v>      -0.23644228      -0.04431313      -0.50000000 </v>
   <v>      -0.23937155      -0.18870526      -0.50000000 </v>
   <v>       0.19048138       0.23782962      -0.50000000 </v>
   <v>       0.04582562      -0.19120635      -0.50000000 </v>
   <v>       0.18948291      -0.04886963      -0.50000000 </v>
   <v>       0.04854983       0.23934281      -0.50000000 </v>
   <v>      -0.28359367      -0.13861590      -0.50000000 </v>
   <v>       0.28470221       0.14112972      -0.50000000 </v>
   <v>      -0.14194737       0.14467669      -0.50000000 </v>
   <v>      -0.14938794      -0.28617460      -0.50000000 </v>
   <v>       0.14160898      -0.14408712      -0.50000000 </v>
   <v>       0.14372552       0.28645370      -0.50000000 </v>
   <v>      -0.28469345       0.00214292      -0.50000000 </v>
   <v>      -0.00292766      -0.28629482      -0.50000000 </v>
   <v>       0.28540977       0.28469374      -0.50000000 </v>
   <v>       0.00095476       0.28713011      -0.50000000 </v>
   <v>       0.28492260      -0.00158337      -0.50000000 </v>
   <v>      -0.29741032      -0.28373063      -0.50000000 </v>
   <v>      -0.09946280      -0.33311206      -0.50000000 </v>
   <v>       0.33234878       0.23634667      -0.50000000 </v>
   <v>      -0.23719996       0.09719274      -0.50000000 </v>
   <v>       0.33254182       0.09365506      -0.50000000 </v>
   <v>      -0.09437203       0.23982737      -0.50000000 </v>
   <v>      -0.24762082      -0.33289240      -0.50000000 </v>
   <v>      -0.37790513      -0.18870526      -0.50000000 </v>
   <v>       0.19188940       0.38184213      -0.50000000 </v>
   <v>       0.19009580      -0.19123697      -0.50000000 </v>
   <v>      -0.37984249      -0.04686260      -0.50000000 </v>
   <v>       0.04642473      -0.33314772      -0.50000000 </v>
   <v>       0.33352206       0.38013969      -0.50000000 </v>
   <v>       0.04871288       0.38176005      -0.50000000 </v>
   <v>       0.33307603      -0.04886963      -0.50000000 </v>
   <v>      -0.41489174      -0.28373063      -0.50000000 </v>
   <v>      -0.42657459      -0.14241310      -0.50000000 </v>
   <v>       0.42724431       0.28306005      -0.50000000 </v>
   <v>      -0.14538305      -0.42818375      -0.50000000 </v>
   <v>      -0.28529671       0.14408264      -0.50000000 </v>
   <v>      -0.28954788      -0.42784436      -0.50000000 </v>
   <v>       0.42785608       0.14112972      -0.50000000 </v>
   <v>      -0.14239608       0.28713011      -0.50000000 </v>
   <v>       0.14422690       0.42957551      -0.50000000 </v>
   <v>       0.28730213       0.42918005      -0.50000000 </v>
   <v>       0.14255519      -0.28631818      -0.50000000 </v>
   <v>       0.28573247      -0.14408712      -0.50000000 </v>
   <v>      -0.24098231      -0.47544567      -0.50000000 </v>
   <v>       0.47542646       0.23634667      -0.50000000 </v>
   <v>      -0.23777845       0.23934281      -0.50000000 </v>
   <v>       0.42797654       0.42569726      -0.50000000 </v>
   <v>      -0.42794161       0.00005992      -0.50000000 </v>
   <v>      -0.00071745      -0.42818538      -0.50000000 </v>
   <v>       0.00054479       0.42966101      -0.50000000 </v>
   <v>       0.42850047      -0.00128105      -0.50000000 </v>
   <v>      -0.43169127      -0.43481112      -0.50000000 </v>
   <v>       0.47472270       0.37801683      -0.50000000 </v>
   <v>      -0.09644208      -0.47523136      -0.50000000 </v>
   <v>      -0.38063624       0.09547788      -0.50000000 </v>
   <v>       0.47590681       0.09405657      -0.50000000 </v>
   <v>      -0.09495607       0.38232824      -0.50000000 </v>
   <v>      -0.38544126      -0.47853279      -0.50000000 </v>
   <v>       0.48615700      -0.33289240      -0.50000000 </v>
   <v>       0.47844872      -0.19102931      -0.50000000 </v>
   <v>       0.19263929      -0.47523136      -0.50000000 </v>
   <v>       0.33696521      -0.47544567      -0.50000000 </v>
   <v>       0.19185612      -0.33314772      -0.50000000 </v>
   <v>       0.33439660      -0.19120635      -0.50000000 </v>
   <v>       0.43464191      -0.28617460      -0.50000000 </v>
   <v>      -0.28669350       0.42918005      -0.50000000 </v>
   <v>      -0.42928746       0.28469374      -0.50000000 </v>
   <v>      -0.28584326       0.28645370      -0.50000000 </v>
   <v>       0.28862787      -0.42818375      -0.50000000 </v>
   <v>       0.28806142      -0.28629482      -0.50000000 </v>
   <v>       0.47668087      -0.04845614      -0.50000000 </v>
   <v>       0.47833704      -0.47853279      -0.50000000 </v>
   <v>       0.04810654      -0.47521548      -0.50000000 </v>
   <v>       0.43313209      -0.42784436      -0.50000000 </v>
   <v>       0.42979175      -0.14386507      -0.50000000 </v>
   <v>      -0.43085070       0.42569726      -0.50000000 </v>
   <v>      -0.14322281       0.42957551      -0.50000000 </v>
   <v>      -0.42871714       0.14244783      -0.50000000 </v>
   <v>       0.14396064      -0.42818538      -0.50000000 </v>
   <v>      -0.23861870       0.38184213      -0.50000000 </v>
   <v>      -0.38122319       0.23782962      -0.50000000 </v>
   <v>      -0.38195380       0.38013969      -0.50000000 </v>
   <v>       0.33777931      -0.33311206      -0.50000000 </v>
  </varray>
 </structure>
 <varray name="primitive_index" >
  <v type="int" >        1 </v>
  <v type="int" >       96 </v>
  <v type="int" >       90 </v>
  <v type="int" >       49 </v>
  <v type="int" >        7 </v>
  <v type="int" >        9 </v>
  <v type="int" >        2 </v>
  <v type="int" >       42 </v>
  <v type="int" >       48 </v>
  <v type="int" >        8 </v>
  <v type="int" >       50 </v>
  <v type="int" >       55 </v>
  <v type="int" >       89 </v>
  <v type="int" >       95 </v>
  <v type="int" >       88 </v>
  <v type="int" >       57 </v>
  <v type="int" >       83 </v>
  <v type="int" >       91 </v>
  <v type="int" >       56 </v>
  <v type="int" >       47 </v>
  <v type="int" >       10 </v>
  <v type="int" >       14 </v>
  <v type="int" >       41 </v>
  <v type="int" >       43 </v>
  <v type="int" >       16 </v>
  <v type="int" >        6 </v>
  <v type="int" >       35 </v>
  <v type="int" >       17 </v>
  <v type="int" >       15 </v>
  <v type="int" >        3 </v>
  <v type="int" >       40 </v>
  <v type="int" >       82 </v>
  <v type="int" >       58 </v>
  <v type="int" >       54 </v>
  <v type="int" >       51 </v>
  <v type="int" >       62 </v>
  <v type="int" >       81 </v>
  <v type="int" >       87 </v>
  <v type="int" >       64 </v>
  <v type="int" >       84 </v>
  <v type="int" >       94 </v>
  <v type="int" >       77 </v>
  <v type="int" >       65 </v>
  <v type="int" >       63 </v>
  <v type="int" >       92 </v>
  <v type="int" >       39 </v>
  <v type="int" >       46 </v>
  <v type="int" >       18 </v>
  <v type="int" >       34 </v>
  <v type="int" >       13 </v>
  <v type="int" >       33 </v>
  <v type="int" >       11 </v>
  <v type="int" >       21 </v>
  <v type="int" >       23 </v>
  <v type="int" >       24 </v>
  <v type="int" >       36 </v>
  <v type="int" >       44 </v>
  <v type="int" >       75 </v>
  <v type="int" >       59 </v>
  <v type="int" >       61 </v>
  <v type="int" >       25 </v>
  <v type="int" >        5 </v>
  <v type="int" >       29 </v>
  <v type="int" >       22 </v>
  <v type="int" >        4 </v>
  <v type="int" >       97 </v>
  <v type="int" >       66 </v>
  <v type="int" >       76 </v>
  <v type="int" >       53 </v>
  <v type="int" >       52 </v>
  <v type="int" >       69 </v>
  <v type="int" >       74 </v>
  <v type="int" >       80 </v>
  <v type="int" >       86 </v>
  <v type="int" >       71 </v>
  <v type="int" >       72 </v>
  <v type="int" >       78 </v>
  <v type="int" >       85 </v>
  <v type="int" >       38 </v>
  <v type="int" >       27 </v>
  <v type="int" >       19 </v>
  <v type="int" >       20 </v>
  <v type="int" >       31 </v>
  <v type="int" >       37 </v>
  <v type="int" >       93 </v>
  <v type="int" >       73 </v>
  <v type="int" >       70 </v>
  <v type="int" >       32 </v>
  <v type="int" >       45 </v>
  <v type="int" >       26 </v>
  <v type="int" >       28 </v>
  <v type="int" >       12 </v>
  <v type="int" >       30 </v>
  <v type="int" >       68 </v>
  <v type="int" >       60 </v>
  <v type="int" >       67 </v>
  <v type="int" >       79 </v>
 </varray>
 <kpoints>
  <generation param="Gamma">
   <v type="int" name="divisions">       1        1        1 </v>
   <v name="usershift">      0.00000000       0.00000000       0.00000000 </v>
   <v name="genvec1">      1.00000000      -0.00000000       0.00000000 </v>
   <v name="genvec2">      0.00000000       1.00000000       0.00000000 </v>
   <v name="genvec3">      0.00000000       0.00000000       1.00000000 </v>
   <v name="shift">      0.00000000       0.00000000       0.00000000 </v>
  </generation>
  <varray name="kpointlist" >
   <v>       0.00000000       0.00000000       0.00000000 </v>
  </varray>
  <varray name="weights" >
   <v>       1.00000000 </v>
  </varray>
 </kpoints>
 <parameters>
  <separator name="general" >
   <i type="string" name="SYSTEM">unknown system</i>
   <i type="logical" name="LCOMPAT"> F  </i>
  </separator>
  <separator name="electronic" >
   <i type="string" name="PREC">accura</i>
   <i name="ENMAX">    500.00000000</i>
   <i name="ENAUG">    644.87300000</i>
   <i name="EDIFF">      0.00000001</i>
   <i type="int" name="IALGO">    38</i>
   <i type="int" name="IWAVPR">    10</i>
   <i type="int" name="NBANDS">   244</i>
   <i name="NELECT">    388.00000000</i>
   <i type="int" name="TURBO">     0</i>
   <i type="int" name="IRESTART">     0</i>
   <i type="int" name="NREBOOT">     0</i>
   <i type="int" name="NMIN">     0</i>
   <i name="EREF">      0.00000000</i>
   <separator name="electronic smearing" >
    <i type="int" name="ISMEAR">     0</i>
    <i name="SIGMA">      0.01000000</i>
    <i name="KSPACING">      0.50000000</i>
    <i type="logical" name="KGAMMA"> T  </i>
   </separator>
   <separator name="electronic projectors" >
    <i type="logical" name="LREAL"> F  </i>
    <v name="ROPT">      0.00000000      0.00000000      0.00000000</v>
    <i type="int" name="LMAXPAW">  -100</i>
    <i type="int" name="LMAXMIX">     2</i>
    <i type="logical" name="NLSPLINE"> F  </i>
   </separator>
   <separator name="electronic startup" >
    <i type="int" name="ISTART">     0</i>
    <i type="int" name="ICHARG">     2</i>
    <i type="int" name="INIWAV">     1</i>
   </separator>
   <separator name="electronic spin" >
    <i type="int" name="ISPIN">     1</i>
    <i type="logical" name="LNONCOLLINEAR"> F  </i>
    <v name="MAGMOM">      1.00000000      1.00000000      1.00000000      1.00000000      1.00000000      1.00000000      1.00000000      1.00000000      1.00000000      1.00000000      1.00000000      1.00000000      1.00000000      1.00000000      1.00000000      1.00000000      1.00000000      1.00000000      1.00000000      1.00000000
      1.00000000      1.00000000      1.00000000      1.00000000      1.00000000      1.00000000      1.00000000      1.00000000      1.00000000      1.00000000      1.00000000      1.00000000      1.00000000      1.00000000      1.00000000      1.00000000      1.00000000      1.00000000      1.00000000      1.00000000
      1.00000000      1.00000000      1.00000000      1.00000000      1.00000000      1.00000000      1.00000000      1.00000000      1.00000000      1.00000000      1.00000000      1.00000000      1.00000000      1.00000000      1.00000000      1.00000000      1.00000000      1.00000000      1.00000000      1.00000000
      1.00000000      1.00000000      1.00000000      1.00000000      1.00000000      1.00000000      1.00000000      1.00000000      1.00000000      1.00000000      1.00000000      1.00000000      1.00000000      1.00000000      1.00000000      1.00000000      1.00000000      1.00000000      1.00000000      1.00000000
      1.00000000      1.00000000      1.00000000      1.00000000      1.00000000      1.00000000      1.00000000      1.00000000      1.00000000      1.00000000      1.00000000      1.00000000      1.00000000      1.00000000      1.00000000      1.00000000      1.00000000</v>
    <i name="NUPDOWN">     -1.00000000</i>
    <i type="logical" name="LSORBIT"> F  </i>
    <v name="SAXIS">      0.00000000      0.00000000      1.00000000</v>
    <i type="logical" name="LSPIRAL"> F  </i>
    <v name="QSPIRAL">      0.00000000      0.00000000      0.00000000</v>
    <i type="logical" name="LZEROZ"> F  </i>
   </separator>
   <separator name="electronic exchange-correlation" >
    <i type="logical" name="LASPH"> F  </i>
    <i type="logical" name="LMETAGGA"> F  </i>
   </separator>
   <separator name="electronic convergence" >
    <i type="int" name="NELM">    60</i>
    <i type="int" name="NELMDL">    -5</i>
    <i type="int" name="NELMIN">     5</i>
    <i name="ENINI">    500.00000000</i>
    <separator name="electronic convergence detail" >
     <i type="logical" name="LDIAG"> T  </i>
     <i type="logical" name="LSUBROT"> F  </i>
     <i name="WEIMIN">      0.00000000</i>
     <i name="EBREAK">      0.00000000</i>
     <i name="DEPER">      0.30000000</i>
     <i type="int" name="NRMM">     4</i>
     <i name="TIME">      0.40000000</i>
    </separator>
   </separator>
   <separator name="electronic mixer" >
    <i name="AMIX">      0.40000000</i>
    <i name="BMIX">      1.00000000</i>
    <i name="AMIN">      0.10000000</i>
    <i name="AMIX_MAG">      1.60000000</i>
    <i name="BMIX_MAG">      1.00000000</i>
    <separator name="electronic mixer details" >
     <i type="int" name="IMIX">     4</i>
     <i type="logical" name="MIXFIRST"> F  </i>
     <i type="int" name="MAXMIX">   -45</i>
     <i name="WC">    100.00000000</i>
     <i type="int" name="INIMIX">     1</i>
     <i type="int" name="MIXPRE">     1</i>
     <i type="int" name="MREMOVE">     5</i>
    </separator>
   </separator>
   <separator name="electronic dipolcorrection" >
    <i type="logical" name="LDIPOL"> F  </i>
    <i type="logical" name="LMONO"> F  </i>
    <i type="int" name="IDIPOL">     0</i>
    <i name="EPSILON">      1.00000000</i>
    <v name="DIPOL">   -100.00000000   -100.00000000   -100.00000000</v>
    <i name="EFIELD">      0.00000000</i>
   </separator>
  </separator>
  <separator name="grids" >
   <i type="int" name="NGX">   128</i>
   <i type="int" name="NGY">   128</i>
   <i type="int" name="NGZ">   150</i>
   <i type="int" name="NGXF">   256</i>
   <i type="int" name="NGYF">   256</i>
   <i type="int" name="NGZF">   300</i>
   <i type="logical" name="ADDGRID"> T  </i>
  </separator>
  <separator name="ionic" >
   <i type="int" name="NSW">     0</i>
   <i type="int" name="IBRION">    -1</i>
   <i type="int" name="MDALGO">     0</i>
   <i type="int" name="ISIF">     2</i>
   <i name="PSTRESS">      0.00000000</i>
   <i name="EDIFFG">     -0.00000001</i>
   <i type="int" name="NFREE">     0</i>
   <i name="POTIM">      0.50000000</i>
   <i name="SMASS">     -3.00000000</i>
   <i name="SCALEE">      1.00000000</i>
  </separator>
  <separator name="ionic md" >
   <i name="TEBEG">      0.00010000</i>
   <i name="TEEND">      0.00010000</i>
   <i type="int" name="NBLOCK">     1</i>
   <i type="int" name="KBLOCK">     1</i>
   <i type="int" name="NPACO">   256</i>
   <i name="APACO">     16.00000000</i>
  </separator>
  <separator name="symmetry" >
   <i type="int" name="ISYM">     2</i>
   <i name="SYMPREC">      0.00001000</i>
  </separator>
  <separator name="dos" >
   <i type="int" name="LORBIT">     0</i>
   <v name="RWIGS">     -1.00000000     -1.00000000     -1.00000000</v>
   <i type="int" name="NEDOS">   301</i>
   <i name="EMIN">     10.00000000</i>
   <i name="EMAX">    -10.00000000</i>
   <i name="EFERMI">      0.00000000</i>
  </separator>
  <separator name="writing" >
   <i type="int" name="NWRITE">     2</i>
   <i type="logical" name="LWAVE"> F  </i>
   <i type="logical" name="LDOWNSAMPLE"> F  </i>
   <i type="logical" name="LCHARG"> F  </i>
   <i type="logical" name="LPARD"> F  </i>
   <i type="logical" name="LVTOT"> F  </i>
   <i type="logical" name="LVHAR"> F  </i>
   <i type="logical" name="LELF"> F  </i>
   <i type="logical" name="LOPTICS"> F  </i>
   <v name="STM">      0.00000000      0.00000000      0.00000000      0.00000000      0.00000000      0.00000000      0.00000000</v>
  </separator>
  <separator name="performance" >
   <i type="int" name="NPAR">     4</i>
   <i type="int" name="NSIM">     4</i>
   <i type="int" name="NBLK">    -1</i>
   <i type="logical" name="LPLANE"> T  </i>
   <i type="logical" name="LSCALAPACK"> T  </i>
   <i type="logical" name="LSCAAWARE"> F  </i>
   <i type="logical" name="LSCALU"> F  </i>
   <i type="logical" name="LASYNC"> F  </i>
   <i type="logical" name="LORBITALREAL"> F  </i>
  </separator>
  <separator name="miscellaneous" >
   <i type="int" name="IDIOT">     3</i>
   <i type="int" name="ISPECIAL">     0</i>
   <i type="logical" name="LMUSIC"> F  </i>
   <v name="POMASS">     10.81100000     14.00100000     12.01100000</v>
   <v name="DARWINR">      0.00000000      0.00000000      0.00000000</v>
   <v name="DARWINV">      1.00000000      1.00000000      1.00000000</v>
   <i type="logical" name="LCORR"> T  </i>
  </separator>
  <i type="logical" name="GGA_COMPAT"> T  </i>
  <i type="logical" name="LBERRY"> F  </i>
  <i type="int" name="ICORELEVEL">     0</i>
  <i type="logical" name="LDAU"> F  </i>
  <i type="int" name="I_CONSTRAINED_M">     0</i>
  <separator name="electronic exchange-correlation" >
   <i type="string" name="GGA">--</i>
   <i type="int" name="VOSKOWN">     0</i>
   <i type="logical" name="LHFCALC"> F  </i>
   <i type="string" name="PRECFOCK"></i>
   <i type="logical" name="LSYMGRAD"> F  </i>
   <i type="logical" name="LHFONE"> F  </i>
   <i type="logical" name="LRHFCALC"> F  </i>
   <i type="logical" name="LTHOMAS"> F  </i>
   <i type="logical" name="LMODELHF"> F  </i>
   <i name="ENCUT4O">     -1.00000000</i>
   <i type="int" name="EXXOEP">     0</i>
   <i type="int" name="FOURORBIT">     0</i>
   <i name="AEXX">      0.00000000</i>
   <i name="HFALPHA">      0.00000000</i>
   <i name="MCALPHA">      0.00000000</i>
   <i name="ALDAX">      1.00000000</i>
   <i name="AGGAX">      1.00000000</i>
   <i name="ALDAC">      1.00000000</i>
   <i name="AGGAC">      1.00000000</i>
   <i type="int" name="NKREDX">     1</i>
   <i type="int" name="NKREDY">     1</i>
   <i type="int" name="NKREDZ">     1</i>
   <i type="logical" name="SHIFTRED"> F  </i>
   <i type="logical" name="ODDONLY"> F  </i>
   <i type="logical" name="EVENONLY"> F  </i>
   <i type="int" name="LMAXFOCK">     0</i>
   <i type="int" name="NMAXFOCKAE">     0</i>
   <i type="logical" name="LFOCKAEDFT"> F  </i>
   <i name="HFSCREEN">      0.00000000</i>
   <i name="HFSCREENC">      0.00000000</i>
   <i type="int" name="NBANDSGWLOW">     0</i>
  </separator>
  <separator name="vdW DFT" >
   <i type="logical" name="LUSE_VDW"> F  </i>
   <i name="Zab_VDW">     -0.84910000</i>
   <i name="PARAM1">      0.12340000</i>
   <i name="PARAM2">      1.00000000</i>
   <i name="PARAM3">      0.00000000</i>
  </separator>
  <separator name="model GW" >
   <i type="int" name="MODEL_GW">     0</i>
   <i name="MODEL_EPS0">     33.05532754</i>
   <i name="MODEL_ALPHA">      1.00000000</i>
  </separator>
  <separator name="linear response parameters" >
   <i type="logical" name="LEPSILON"> F  </i>
   <i type="logical" name="LRPA"> F  </i>
   <i type="logical" name="LNABLA"> F  </i>
   <i type="logical" name="LVEL"> F  </i>
   <i type="int" name="KINTER">     0</i>
   <i name="CSHIFT">      0.10000000</i>
   <i name="OMEGAMAX">     -1.00000000</i>
   <i name="DEG_THRESHOLD">      0.00200000</i>
   <i name="RTIME">     -0.10000000</i>
   <i name="WPLASMAI">      0.00000000</i>
   <v name="DFIELD">      0.00000000      0.00000000      0.00000000</v>
   <v name="WPLASMA">      0.00000000      0.00000000      0.00000000      0.00000000      0.00000000      0.00000000      0.00000000      0.00000000      0.00000000</v>
  </separator>
  <separator name="orbital magnetization" >
   <i type="logical" name="NUCIND"> F  </i>
   <v name="MAGPOS">      0.00000000      0.00000000      0.00000000</v>
   <i type="logical" name="LNICSALL"> T  </i>
   <i type="logical" name="ORBITALMAG"> F  </i>
   <i type="logical" name="LMAGBLOCH"> F  </i>
   <i type="logical" name="LCHIMAG"> F  </i>
   <i type="logical" name="LGAUGE"> T  </i>
   <i type="int" name="MAGATOM">     0</i>
   <v name="MAGDIPOL">      0.00000000      0.00000000      0.00000000</v>
   <v name="AVECCONST">      0.00000000      0.00000000      0.00000000</v>
  </separator>
  <separator name="response functions" >
   <i type="logical" name="LADDER"> F  </i>
   <i type="logical" name="LRPAFORCE"> F  </i>
   <i type="logical" name="LFXC"> F  </i>
   <i type="logical" name="LHARTREE"> T  </i>
   <i type="int" name="IBSE">     0</i>
   <v type="int" name="KPOINT">    -1     0     0     0</v>
   <i type="logical" name="LTCTE"> F  </i>
   <i type="logical" name="LTETE"> F  </i>
   <i type="logical" name="LTRIPLET"> F  </i>
   <i type="logical" name="LFXCEPS"> F  </i>
   <i type="logical" name="LFXHEG"> F  </i>
   <i type="int" name="NATURALO">     2</i>
   <i type="logical" name="L2ORDER"> F  </i>
   <i type="logical" name="LMP2LT"> F  </i>
   <i type="logical" name="LUSEW"> F  </i>
   <i name="ENCUTGW">     -2.00000000</i>
   <i name="ENCUTGWSOFT">     -2.00000000</i>
   <i name="ENCUTLF">     -1.00000000</i>
   <i type="int" name="LMAXMP2">    -1</i>
   <i name="SCISSOR">      0.00000000</i>
   <i type="int" name="NOMEGA">     0</i>
   <i type="int" name="NOMEGAR">     0</i>
   <i type="int" name="NBANDSGW">    -1</i>
   <i type="int" name="NBANDSO">    -1</i>
   <i type="int" name="NBANDSV">    -1</i>
   <i type="int" name="NELM">     1</i>
   <i type="int" name="NELMHF">     1</i>
   <i type="int" name="DIM">     3</i>
   <i type="int" name="ANTIRES">     0</i>
   <i name="OMEGAMAX">    -30.00000000</i>
   <i name="OMEGAMIN">    -30.00000000</i>
   <i name="OMEGATL">   -200.00000000</i>
   <i type="int" name="OMEGAGRID">   140</i>
   <i name="CSHIFT">     -0.10000000</i>
   <i type="logical" name="SELFENERGY"> F  </i>
   <i type="logical" name="LSPECTRAL"> F  </i>
   <i type="logical" name="LSPECTRALGW"> F  </i>
   <i type="logical" name="LSINGLES"> F  </i>
   <i type="logical" name="LFERMIGW"> F  </i>
   <i type="logical" name="ODDONLYGW"> F  </i>
   <i type="logical" name="EVENONLYGW"> F  </i>
   <i type="int" name="NKREDLFX">     1</i>
   <i type="int" name="NKREDLFY">     1</i>
   <i type="int" name="NKREDLFZ">     1</i>
   <i type="int" name="MAXMEM">  2800</i>
   <i type="int" name="TELESCOPE">     0</i>
   <i type="int" name="TAUPAR">     1</i>
   <i type="int" name="OMEGAPAR">    -1</i>
   <i name="LAMBDA">      1.00000000</i>
  </separator>
  <separator name="External order field" >
   <i name="OFIELD_KAPPA">      0.00000000</i>
   <v name="OFIELD_K">      0.00000000      0.00000000      0.00000000</v>
   <i name="OFIELD_Q6_NEAR">      0.00000000</i>
   <i name="OFIELD_Q6_FAR">      0.00000000</i>
   <i name="OFIELD_A">      0.00000000</i>
  </separator>
 </parameters>
 <atominfo>
  <atoms>      97 </atoms>
  <types>       3 </types>
  <array name="atoms" >
   <dimension dim="1">ion</dimension>
   <field type="string">element</field>
   <field type="int">atomtype</field>
   <set>
    <rc><c>B </c><c>   1</c></rc>
    <rc><c>B </c><c>   1</c></rc>
    <rc><c>B </c><c>   1</c></rc>
    <rc><c>B </c><c>   1</c></rc>
    <rc><c>B </c><c>   1</c></rc>
    <rc><c>B </c><c>   1</c></rc>
    <rc><c>B </c><c>   1</c></rc>
    <rc><c>B </c><c>   1</c></rc>
    <rc><c>B </c><c>   1</c></rc>
    <rc><c>B </c><c>   1</c></rc>
    <rc><c>B </c><c>   1</c></rc>
    <rc><c>B </c><c>   1</c></rc>
    <rc><c>B </c><c>   1</c></rc>
    <rc><c>B </c><c>   1</c></rc>
    <rc><c>B </c><c>   1</c></rc>
    <rc><c>B </c><c>   1</c></rc>
    <rc><c>B </c><c>   1</c></rc>
    <rc><c>B </c><c>   1</c></rc>
    <rc><c>B </c><c>   1</c></rc>
    <rc><c>B </c><c>   1</c></rc>
    <rc><c>B </c><c>   1</c></rc>
    <rc><c>B </c><c>   1</c></rc>
    <rc><c>B </c><c>   1</c></rc>
    <rc><c>B </c><c>   1</c></rc>
    <rc><c>B </c><c>   1</c></rc>
    <rc><c>B </c><c>   1</c></rc>
    <rc><c>B </c><c>   1</c></rc>
    <rc><c>B </c><c>   1</c></rc>
    <rc><c>B </c><c>   1</c></rc>
    <rc><c>B </c><c>   1</c></rc>
    <rc><c>B </c><c>   1</c></rc>
    <rc><c>B </c><c>   1</c></rc>
    <rc><c>B </c><c>   1</c></rc>
    <rc><c>B </c><c>   1</c></rc>
    <rc><c>B </c><c>   1</c></rc>
    <rc><c>B </c><c>   1</c></rc>
    <rc><c>B </c><c>   1</c></rc>
    <rc><c>B </c><c>   1</c></rc>
    <rc><c>B </c><c>   1</c></rc>
    <rc><c>B </c><c>   1</c></rc>
    <rc><c>B </c><c>   1</c></rc>
    <rc><c>B </c><c>   1</c></rc>
    <rc><c>B </c><c>   1</c></rc>
    <rc><c>B </c><c>   1</c></rc>
    <rc><c>B </c><c>   1</c></rc>
    <rc><c>B </c><c>   1</c></rc>
    <rc><c>B </c><c>   1</c></rc>
    <rc><c>B </c><c>   1</c></rc>
    <rc><c>N </c><c>   2</c></rc>
    <rc><c>N </c><c>   2</c></rc>
    <rc><c>N </c><c>   2</c></rc>
    <rc><c>N </c><c>   2</c></rc>
    <rc><c>N </c><c>   2</c></rc>
    <rc><c>N </c><c>   2</c></rc>
    <rc><c>N </c><c>   2</c></rc>
    <rc><c>N </c><c>   2</c></rc>
    <rc><c>N </c><c>   2</c></rc>
    <rc><c>N </c><c>   2</c></rc>
    <rc><c>N </c><c>   2</c></rc>
    <rc><c>N </c><c>   2</c></rc>
    <rc><c>N </c><c>   2</c></rc>
    <rc><c>N </c><c>   2</c></rc>
    <rc><c>N </c><c>   2</c></rc>
    <rc><c>N </c><c>   2</c></rc>
    <rc><c>N </c><c>   2</c></rc>
    <rc><c>N </c><c>   2</c></rc>
    <rc><c>N </c><c>   2</c></rc>
    <rc><c>N </c><c>   2</c></rc>
    <rc><c>N </c><c>   2</c></rc>
    <rc><c>N </c><c>   2</c></rc>
    <rc><c>N </c><c>   2</c></rc>
    <rc><c>N </c><c>   2</c></rc>
    <rc><c>N </c><c>   2</c></rc>
    <rc><c>N </c><c>   2</c></rc>
    <rc><c>N </c><c>   2</c></rc>
    <rc><c>N </c><c>   2</c></rc>
    <rc><c>N </c><c>   2</c></rc>
    <rc><c>N </c><c>   2</c></rc>
    <rc><c>N </c><c>   2</c></rc>
    <rc><c>N </c><c>   2</c></rc>
    <rc><c>N </c><c>   2</c></rc>
    <rc><c>N </c><c>   2</c></rc>
    <rc><c>N </c><c>   2</c></rc>
    <rc><c>N </c><c>   2</c></rc>
    <rc><c>N </c><c>   2</c></rc>
    <rc><c>N </c><c>   2</c></rc>
    <rc><c>N </c><c>   2</c></rc>
    <rc><c>N </c><c>   2</c></rc>
    <rc><c>N </c><c>   2</c></rc>
    <rc><c>N </c><c>   2</c></rc>
    <rc><c>N </c><c>   2</c></rc>
    <rc><c>N </c><c>   2</c></rc>
    <rc><c>N </c><c>   2</c></rc>
    <rc><c>N </c><c>   2</c></rc>
    <rc><c>N </c><c>   2</c></rc>
    <rc><c>N </c><c>   2</c></rc>
    <rc><c>C </c><c>   3</c></rc>
   </set>
  </array>
  <array name="atomtypes" >
   <dimension dim="1">type</dimension>
   <field type="int">atomspertype</field>
   <field type="string">element</field>
   <field>mass</field>
   <field>valence</field>
   <field type="string">pseudopotential</field>
   <set>
    <rc><c>  48</c><c>B </c><c>     10.81100000</c><c>      3.00000000</c><c>  PAW_PBE B 06Sep2000                   </c></rc>
    <rc><c>  48</c><c>N </c><c>     14.00100000</c><c>      5.00000000</c><c>  PAW_PBE N 08Apr2002                   </c></rc>
    <rc><c>   1</c><c>C </c><c>     12.01100000</c><c>      4.00000000</c><c>  PAW_PBE C 08Apr2002                   </c></rc>
   </set>
  </array>
 </atominfo>
 <structure name="initialpos" >
  <crystal>
   <varray name="basis" >
    <v>      17.59966831       0.00000000       0.00000000 </v>
    <v>      -8.79983416      15.24175986       0.00000000 </v>
    <v>       0.00000000       0.00000000      19.92151445 </v>
   </varray>
   <i name="volume">   5343.94461817 </i>
   <varray name="rec_basis" >
    <v>       0.05681925       0.03280461       0.00000000 </v>
    <v>       0.00000000       0.06560922       0.00000000 </v>
    <v>       0.00000000       0.00000000       0.05019699 </v>
   </varray>
  </crystal>
  <varray name="positions" >
   <v>       0.99943010       0.00005992       0.50000000 </v>
   <v>       0.14164706       0.99871895       0.50000000 </v>
   <v>       0.28492260       0.99841663       0.50000000 </v>
   <v>       0.42850047       0.99871895       0.50000000 </v>
   <v>       0.57205839       0.00005992       0.50000000 </v>
   <v>       0.71530655       0.00214292       0.50000000 </v>
   <v>       0.85826494       0.00214292       0.50000000 </v>
   <v>       0.00080792       0.14408264       0.50000000 </v>
   <v>       0.14259355       0.14244783       0.50000000 </v>
   <v>       0.28470221       0.14112972       0.50000000 </v>
   <v>       0.42785608       0.14112972       0.50000000 </v>
   <v>       0.57128286       0.14244783       0.50000000 </v>
   <v>       0.71470329       0.14408264       0.50000000 </v>
   <v>       0.85805263       0.14467669       0.50000000 </v>
   <v>       0.00095476       0.28713011       0.50000000 </v>
   <v>       0.14372552       0.28645370       0.50000000 </v>
   <v>       0.28540977       0.28469374       0.50000000 </v>
   <v>       0.42724431       0.28306005       0.50000000 </v>
   <v>       0.57071254       0.28469374       0.50000000 </v>
   <v>       0.71415674       0.28645370       0.50000000 </v>
   <v>       0.85760392       0.28713011       0.50000000 </v>
   <v>       0.00054479       0.42966101       0.50000000 </v>
   <v>       0.14422690       0.42957551       0.50000000 </v>
   <v>       0.28730213       0.42918005       0.50000000 </v>
   <v>       0.42797654       0.42569726       0.50000000 </v>
   <v>       0.56914930       0.42569726       0.50000000 </v>
   <v>       0.71330650       0.42918005       0.50000000 </v>
   <v>       0.85677719       0.42957551       0.50000000 </v>
   <v>       0.99928255       0.57181462       0.50000000 </v>
   <v>       0.14396064       0.57181462       0.50000000 </v>
   <v>       0.28862787       0.57181625       0.50000000 </v>
   <v>       0.43313209       0.57215564       0.50000000 </v>
   <v>       0.71045212       0.57215564       0.50000000 </v>
   <v>       0.85461695       0.57181625       0.50000000 </v>
   <v>       0.99707234       0.71370518       0.50000000 </v>
   <v>       0.14255519       0.71368182       0.50000000 </v>
   <v>       0.28806142       0.71370518       0.50000000 </v>
   <v>       0.43464191       0.71382540       0.50000000 </v>
   <v>       0.58510826       0.71626937       0.50000000 </v>
   <v>       0.70258968       0.71626937       0.50000000 </v>
   <v>       0.85061206       0.71382540       0.50000000 </v>
   <v>       0.99777175       0.85613493       0.50000000 </v>
   <v>       0.14160898       0.85591288       0.50000000 </v>
   <v>       0.28573247       0.85591288       0.50000000 </v>
   <v>       0.42979175       0.85613493       0.50000000 </v>
   <v>       0.57342541       0.85758690       0.50000000 </v>
   <v>       0.71640633       0.86138410       0.50000000 </v>
   <v>       0.85559006       0.85758690       0.50000000 </v>
   <v>       0.04754270       0.09547788       0.50000000 </v>
   <v>       0.18957833       0.09405657       0.50000000 </v>
   <v>       0.33254182       0.09365506       0.50000000 </v>
   <v>       0.47590681       0.09405657       0.50000000 </v>
   <v>       0.61936376       0.09547788       0.50000000 </v>
   <v>       0.76280004       0.09719274       0.50000000 </v>
   <v>       0.90582126       0.09719274       0.50000000 </v>
   <v>       0.04854983       0.23934281       0.50000000 </v>
   <v>       0.19048138       0.23782962       0.50000000 </v>
   <v>       0.33234878       0.23634667       0.50000000 </v>
   <v>       0.47542646       0.23634667       0.50000000 </v>
   <v>       0.61877681       0.23782962       0.50000000 </v>
   <v>       0.76222155       0.23934281       0.50000000 </v>
   <v>       0.90562797       0.23982737       0.50000000 </v>
   <v>       0.04871288       0.38176005       0.50000000 </v>
   <v>       0.19188940       0.38184213       0.50000000 </v>
   <v>       0.33352206       0.38013969       0.50000000 </v>
   <v>       0.47472270       0.37801683       0.50000000 </v>
   <v>       0.61804620       0.38013969       0.50000000 </v>
   <v>       0.76138130       0.38184213       0.50000000 </v>
   <v>       0.90504393       0.38232824       0.50000000 </v>
   <v>       0.04810654       0.52478452       0.50000000 </v>
   <v>       0.19263929       0.52476864       0.50000000 </v>
   <v>       0.33696521       0.52455433       0.50000000 </v>
   <v>       0.47833704       0.52146721       0.50000000 </v>
   <v>       0.61455874       0.52146721       0.50000000 </v>
   <v>       0.75901769       0.52455433       0.50000000 </v>
   <v>       0.90355792       0.52476864       0.50000000 </v>
   <v>       0.04642473       0.66685228       0.50000000 </v>
   <v>       0.19185612       0.66685228       0.50000000 </v>
   <v>       0.33777931       0.66688794       0.50000000 </v>
   <v>       0.48615700       0.66710760       0.50000000 </v>
   <v>       0.75237918       0.66710760       0.50000000 </v>
   <v>       0.90053720       0.66688794       0.50000000 </v>
   <v>       0.04582562       0.80879365       0.50000000 </v>
   <v>       0.19009580       0.80876303       0.50000000 </v>
   <v>       0.33439660       0.80879365       0.50000000 </v>
   <v>       0.47844872       0.80897069       0.50000000 </v>
   <v>       0.62209487       0.81129474       0.50000000 </v>
   <v>       0.76062845       0.81129474       0.50000000 </v>
   <v>       0.90195054       0.80897069       0.50000000 </v>
   <v>       0.04629157       0.95154386       0.50000000 </v>
   <v>       0.18948291       0.95113037       0.50000000 </v>
   <v>       0.33307603       0.95113037       0.50000000 </v>
   <v>       0.47668087       0.95154386       0.50000000 </v>
   <v>       0.62015751       0.95313740       0.50000000 </v>
   <v>       0.76355772       0.95568687       0.50000000 </v>
   <v>       0.90440847       0.95313740       0.50000000 </v>
   <v>       0.56830873       0.56518888       0.50000000 </v>
  </varray>
 </structure>
 <calculation>
  <scstep>
   <time name="dav">    2.36    2.39</time>
   <time name="total">    2.73    2.83</time>
   <energy>
    <i name="alphaZ">    156.50993408 </i>
    <i name="ewald">  58206.82202508 </i>
    <i name="hartreedc"> -70374.23429109 </i>
    <i name="XCdc">   1302.10902677 </i>
    <i name="pawpsdc">  12033.28670802 </i>
    <i name="pawaedc"> -12049.96799276 </i>
    <i name="eentropy">     -0.00000000 </i>
    <i name="bandstr">   -904.57762663 </i>
    <i name="atom">  16260.93880140 </i>
    <i name="e_fr_energy">   4630.88658487 </i>
    <i name="e_wo_entrp">   4630.88658487 </i>
    <i name="e_0_energy">   4630.88658487 </i>
   </energy>
  </scstep>
  <scstep>
   <time name="dav">    3.00    3.03</time>
   <time name="total">    3.00    3.03</time>
   <energy>
    <i name="e_fr_energy">    216.74274048 </i>
    <i name="e_wo_entrp">    216.74274048 </i>
    <i name="e_0_energy">    216.74274048 </i>
   </energy>
  </scstep>
  <scstep>
   <time name="dav">    2.48    2.51</time>
   <time name="total">    2.48    2.51</time>
   <energy>
    <i name="e_fr_energy">   -867.45770447 </i>
    <i name="e_wo_entrp">   -867.45770447 </i>
    <i name="e_0_energy">   -867.45770447 </i>
   </energy>
  </scstep>
  <scstep>
   <time name="dav">    2.48    2.51</time>
   <time name="total">    2.48    2.51</time>
   <energy>
    <i name="e_fr_energy">   -934.19571202 </i>
    <i name="e_wo_entrp">   -934.19571202 </i>
    <i name="e_0_energy">   -934.19571202 </i>
   </energy>
  </scstep>
  <scstep>
   <time name="dav">    2.51    2.54</time>
   <time name="total">    2.97    3.01</time>
   <energy>
    <i name="e_fr_energy">   -935.77610519 </i>
    <i name="e_wo_entrp">   -935.77610519 </i>
    <i name="e_0_energy">   -935.77610519 </i>
   </energy>
  </scstep>
  <scstep>
   <time name="dav">    2.33    2.35</time>
   <time name="total">    3.15    3.18</time>
   <energy>
    <i name="e_fr_energy">   -858.73372681 </i>
    <i name="e_wo_entrp">   -858.73372681 </i>
    <i name="e_0_energy">   -858.73372681 </i>
   </energy>
  </scstep>
  <scstep>
   <time name="dav">    2.36    2.37</time>
   <time name="total">    3.17    3.21</time>
   <energy>
    <i name="e_fr_energy">   -850.19292384 </i>
    <i name="e_wo_entrp">   -850.19292384 </i>
    <i name="e_0_energy">   -850.19292384 </i>
   </energy>
  </scstep>
  <scstep>
   <time name="dav">    2.29    2.31</time>
   <time name="total">    3.11    3.15</time>
   <energy>
    <i name="e_fr_energy">   -845.92542461 </i>
    <i name="e_wo_entrp">   -845.92542357 </i>
    <i name="e_0_energy">   -845.92542409 </i>
   </energy>
  </scstep>
  <scstep>
   <time name="dav">    2.31    2.32</time>
   <time name="total">    3.12    3.16</time>
   <energy>
    <i name="e_fr_energy">   -845.80033800 </i>
    <i name="e_wo_entrp">   -845.80033800 </i>
    <i name="e_0_energy">   -845.80033800 </i>
   </energy>
  </scstep>
  <scstep>
   <time name="dav">    2.38    2.40</time>
   <time name="total">    3.20    3.23</time>
   <energy>
    <i name="e_fr_energy">   -845.63914610 </i>
    <i name="e_wo_entrp">   -845.63914610 </i>
    <i name="e_0_energy">   -845.63914610 </i>
   </energy>
  </scstep>
  <scstep>
   <time name="dav">    2.25    2.27</time>
   <time name="total">    3.07    3.11</time>
   <energy>
    <i name="e_fr_energy">   -845.58645336 </i>
    <i name="e_wo_entrp">   -845.58645336 </i>
    <i name="e_0_energy">   -845.58645336 </i>
   </energy>
  </scstep>
  <scstep>
   <time name="dav">    2.26    2.27</time>
   <time name="total">    3.08    3.12</time>
   <energy>
    <i name="e_fr_energy">   -845.57358948 </i>
    <i name="e_wo_entrp">   -845.57358948 </i>
    <i name="e_0_energy">   -845.57358948 </i>
   </energy>
  </scstep>
  <scstep>
   <time name="dav">    2.23    2.25</time>
   <time name="total">    3.06    3.09</time>
   <energy>
    <i name="e_fr_energy">   -845.58410764 </i>
    <i name="e_wo_entrp">   -845.58410764 </i>
    <i name="e_0_energy">   -845.58410764 </i>
   </energy>
  </scstep>
  <scstep>
   <time name="dav">    2.25    2.27</time>
   <time name="total">    3.08    3.12</time>
   <energy>
    <i name="e_fr_energy">   -845.59371788 </i>
    <i name="e_wo_entrp">   -845.59371788 </i>
    <i name="e_0_energy">   -845.59371788 </i>
   </energy>
  </scstep>
  <scstep>
   <time name="dav">    2.18    2.20</time>
   <time name="total">    3.04    3.07</time>
   <energy>
    <i name="e_fr_energy">   -845.62488610 </i>
    <i name="e_wo_entrp">   -845.62488610 </i>
    <i name="e_0_energy">   -845.62488610 </i>
   </energy>
  </scstep>
  <scstep>
   <time name="dav">    2.29    2.31</time>
   <time name="total">    4.36    4.39</time>
   <energy>
    <i name="e_fr_energy">   -845.64130967 </i>
    <i name="e_wo_entrp">   -845.64130967 </i>
    <i name="e_0_energy">   -845.64130967 </i>
   </energy>
  </scstep>
  <scstep>
   <time name="dav">    2.29    2.31</time>
   <time name="total">    3.12    3.16</time>
   <energy>
    <i name="e_fr_energy">   -845.64761407 </i>
    <i name="e_wo_entrp">   -845.64761407 </i>
    <i name="e_0_energy">   -845.64761407 </i>
   </energy>
  </scstep>
  <scstep>
   <time name="dav">    2.24    2.25</time>
   <time name="total">    3.07    3.10</time>
   <energy>
    <i name="e_fr_energy">   -845.65084142 </i>
    <i name="e_wo_entrp">   -845.65084142 </i>
    <i name="e_0_energy">   -845.65084142 </i>
   </energy>
  </scstep>
  <scstep>
   <time name="dav">    2.28    2.30</time>
   <time name="total">    3.11    3.15</time>
   <energy>
    <i name="e_fr_energy">   -845.65186261 </i>
    <i name="e_wo_entrp">   -845.65186261 </i>
    <i name="e_0_energy">   -845.65186261 </i>
   </energy>
  </scstep>
  <scstep>
   <time name="dav">    2.23    2.25</time>
   <time name="total">    3.06    3.09</time>
   <energy>
    <i name="e_fr_energy">   -845.65228855 </i>
    <i name="e_wo_entrp">   -845.65228855 </i>
    <i name="e_0_energy">   -845.65228855 </i>
   </energy>
  </scstep>
  <scstep>
   <time name="dav">    2.26    2.28</time>
   <time name="total">    3.08    3.12</time>
   <energy>
    <i name="e_fr_energy">   -845.65248474 </i>
    <i name="e_wo_entrp">   -845.65248474 </i>
    <i name="e_0_energy">   -845.65248474 </i>
   </energy>
  </scstep>
  <scstep>
   <time name="dav">    2.21    2.23</time>
   <time name="total">    3.03    3.07</time>
   <energy>
    <i name="e_fr_energy">   -845.65259526 </i>
    <i name="e_wo_entrp">   -845.65259526 </i>
    <i name="e_0_energy">   -845.65259526 </i>
   </energy>
  </scstep>
  <scstep>
   <time name="dav">    2.23    2.25</time>
   <time name="total">    3.06    3.10</time>
   <energy>
    <i name="e_fr_energy">   -845.65267538 </i>
    <i name="e_wo_entrp">   -845.65267538 </i>
    <i name="e_0_energy">   -845.65267538 </i>
   </energy>
  </scstep>
  <scstep>
   <time name="dav">    2.32    2.34</time>
   <time name="total">    3.15    3.19</time>
   <energy>
    <i name="e_fr_energy">   -845.65271427 </i>
    <i name="e_wo_entrp">   -845.65271427 </i>
    <i name="e_0_energy">   -845.65271427 </i>
   </energy>
  </scstep>
  <scstep>
   <time name="dav">    2.23    2.25</time>
   <time name="total">    3.07    3.10</time>
   <energy>
    <i name="e_fr_energy">   -845.65273362 </i>
    <i name="e_wo_entrp">   -845.65273362 </i>
    <i name="e_0_energy">   -845.65273362 </i>
   </energy>
  </scstep>
  <scstep>
   <time name="dav">    2.24    2.25</time>
   <time name="total">    3.07    3.11</time>
   <energy>
    <i name="e_fr_energy">   -845.65274996 </i>
    <i name="e_wo_entrp">   -845.65274996 </i>
    <i name="e_0_energy">   -845.65274996 </i>
   </energy>
  </scstep>
  <scstep>
   <time name="dav">    2.15    2.17</time>
   <time name="total">    2.98    3.02</time>
   <energy>
    <i name="e_fr_energy">   -845.65275312 </i>
    <i name="e_wo_entrp">   -845.65275312 </i>
    <i name="e_0_energy">   -845.65275312 </i>
   </energy>
  </scstep>
  <scstep>
   <time name="dav">    1.97    1.98</time>
   <time name="total">    2.80    2.83</time>
   <energy>
    <i name="e_fr_energy">   -845.65275442 </i>
    <i name="e_wo_entrp">   -845.65275442 </i>
    <i name="e_0_energy">   -845.65275442 </i>
   </energy>
  </scstep>
  <scstep>
   <time name="dav">    1.74    1.76</time>
   <time name="total">    2.59    2.61</time>
   <energy>
    <i name="e_fr_energy">   -845.65275470 </i>
    <i name="e_wo_entrp">   -845.65275470 </i>
    <i name="e_0_energy">   -845.65275470 </i>
   </energy>
  </scstep>
  <scstep>
   <time name="dav">    1.67    1.68</time>
   <time name="total">    2.51    2.54</time>
   <energy>
    <i name="e_fr_energy">   -845.65275481 </i>
    <i name="e_wo_entrp">   -845.65275481 </i>
    <i name="e_0_energy">   -845.65275481 </i>
   </energy>
  </scstep>
  <scstep>
   <time name="dav">    1.69    1.71</time>
   <time name="total">    2.54    2.58</time>
   <energy>
    <i name="e_fr_energy">   -845.65275487 </i>
    <i name="e_wo_entrp">   -845.65275487 </i>
    <i name="e_0_energy">   -845.65275487 </i>
   </energy>
  </scstep>
  <scstep>
   <time name="dav">    1.67    1.69</time>
   <time name="total">    2.52    2.55</time>
   <energy>
    <i name="e_fr_energy">   -845.65275490 </i>
    <i name="e_wo_entrp">   -845.65275490 </i>
    <i name="e_0_energy">   -845.65275490 </i>
   </energy>
  </scstep>
  <scstep>
   <time name="dav">    1.79    1.81</time>
   <time name="total">    2.16    2.21</time>
   <energy>
    <i name="alphaZ">    156.50993408 </i>
    <i name="ewald">  58206.82202508 </i>
    <i name="hartreedc"> -72314.32866998 </i>
    <i name="XCdc">   1369.72450404 </i>
    <i name="pawpsdc">  44019.05130169 </i>
    <i name="pawaedc"> -44054.39327927 </i>
    <i name="eentropy">     -0.00000000 </i>
    <i name="bandstr">  -4489.97737195 </i>
    <i name="atom">  16260.93880140 </i>
    <i name="e_fr_energy">   -845.65275490 </i>
    <i name="e_wo_entrp">   -845.65275490 </i>
    <i name="e_0_energy">   -845.65275490 </i>
   </energy>
  </scstep>
  <structure>
   <crystal>
    <varray name="basis" >
     <v>      17.59966831       0.00000000       0.00000000 </v>
     <v>      -8.79983416      15.24175986       0.00000000 </v>
     <v>       0.00000000       0.00000000      19.92151445 </v>
    </varray>
    <i name="volume">   5343.94461817 </i>
    <varray name="rec_basis" >
     <v>       0.05681925       0.03280461       0.00000000 </v>
     <v>       0.00000000       0.06560922       0.00000000 </v>
     <v>       0.00000000       0.00000000       0.05019699 </v>
    </varray>
   </crystal>
   <varray name="positions" >
    <v>       0.99943010       0.00005992       0.50000000 </v>
    <v>       0.14164706       0.99871895       0.50000000 </v>
    <v>       0.28492260       0.99841663       0.50000000 </v>
    <v>       0.42850047       0.99871895       0.50000000 </v>
    <v>       0.57205839       0.00005992       0.50000000 </v>
    <v>       0.71530655       0.00214292       0.50000000 </v>
    <v>       0.85826494       0.00214292       0.50000000 </v>
    <v>       0.00080792       0.14408264       0.50000000 </v>
    <v>       0.14259355       0.14244783       0.50000000 </v>
    <v>       0.28470221       0.14112972       0.50000000 </v>
    <v>       0.42785608       0.14112972       0.50000000 </v>
    <v>       0.57128286       0.14244783       0.50000000 </v>
    <v>       0.71470329       0.14408264       0.50000000 </v>
    <v>       0.85805263       0.14467669       0.50000000 </v>
    <v>       0.00095476       0.28713011       0.50000000 </v>
    <v>       0.14372552       0.28645370       0.50000000 </v>
    <v>       0.28540977       0.28469374       0.50000000 </v>
    <v>       0.42724431       0.28306005       0.50000000 </v>
    <v>       0.57071254       0.28469374       0.50000000 </v>
    <v>       0.71415674       0.28645370       0.50000000 </v>
    <v>       0.85760392       0.28713011       0.50000000 </v>
    <v>       0.00054479       0.42966101       0.50000000 </v>
    <v>       0.14422690       0.42957551       0.50000000 </v>
    <v>       0.28730213       0.42918005       0.50000000 </v>
    <v>       0.42797654       0.42569726       0.50000000 </v>
    <v>       0.56914930       0.42569726       0.50000000 </v>
    <v>       0.71330650       0.42918005       0.50000000 </v>
    <v>       0.85677719       0.42957551       0.50000000 </v>
    <v>       0.99928255       0.57181462       0.50000000 </v>
    <v>       0.14396064       0.57181462       0.50000000 </v>
    <v>       0.28862787       0.57181625       0.50000000 </v>
    <v>       0.43313209       0.57215564       0.50000000 </v>
    <v>       0.71045212       0.57215564       0.50000000 </v>
    <v>       0.85461695       0.57181625       0.50000000 </v>
    <v>       0.99707234       0.71370518       0.50000000 </v>
    <v>       0.14255519       0.71368182       0.50000000 </v>
    <v>       0.28806142       0.71370518       0.50000000 </v>
    <v>       0.43464191       0.71382540       0.50000000 </v>
    <v>       0.58510826       0.71626937       0.50000000 </v>
    <v>       0.70258968       0.71626937       0.50000000 </v>
    <v>       0.85061206       0.71382540       0.50000000 </v>
    <v>       0.99777175       0.85613493       0.50000000 </v>
    <v>       0.14160898       0.85591288       0.50000000 </v>
    <v>       0.28573247       0.85591288       0.50000000 </v>
    <v>       0.42979175       0.85613493       0.50000000 </v>
    <v>       0.57342541       0.85758690       0.50000000 </v>
    <v>       0.71640633       0.86138410       0.50000000 </v>
    <v>       0.85559006       0.85758690       0.50000000 </v>
    <v>       0.04754270       0.09547788       0.50000000 </v>
    <v>       0.18957833       0.09405657       0.50000000 </v>
    <v>       0.33254182       0.09365506       0.50000000 </v>
    <v>       0.47590681       0.09405657       0.50000000 </v>
    <v>       0.61936376       0.09547788       0.50000000 </v>
    <v>       0.76280004       0.09719274       0.50000000 </v>
    <v>       0.90582126       0.09719274       0.50000000 </v>
    <v>       0.04854983       0.23934281       0.50000000 </v>
    <v>       0.19048138       0.23782962       0.50000000 </v>
    <v>       0.33234878       0.23634667       0.50000000 </v>
    <v>       0.47542646       0.23634667       0.50000000 </v>
    <v>       0.61877681       0.23782962       0.50000000 </v>
    <v>       0.76222155       0.23934281       0.50000000 </v>
    <v>       0.90562797       0.23982737       0.50000000 </v>
    <v>       0.04871288       0.38176005       0.50000000 </v>
    <v>       0.19188940       0.38184213       0.50000000 </v>
    <v>       0.33352206       0.38013969       0.50000000 </v>
    <v>       0.47472270       0.37801683       0.50000000 </v>
    <v>       0.61804620       0.38013969       0.50000000 </v>
    <v>       0.76138130       0.38184213       0.50000000 </v>
    <v>       0.90504393       0.38232824       0.50000000 </v>
    <v>       0.04810654       0.52478452       0.50000000 </v>
    <v>       0.19263929       0.52476864       0.50000000 </v>
    <v>       0.33696521       0.52455433       0.50000000 </v>
    <v>       0.47833704       0.52146721       0.50000000 </v>
    <v>       0.61455874       0.52146721       0.50000000 </v>
    <v>       0.75901769       0.52455433       0.50000000 </v>
    <v>       0.90355792       0.52476864       0.50000000 </v>
    <v>       0.04642473       0.66685228       0.50000000 </v>
    <v>       0.19185612       0.66685228       0.50000000 </v>
    <v>       0.33777931       0.66688794       0.50000000 </v>
    <v>       0.48615700       0.66710760       0.50000000 </v>
    <v>       0.75237918       0.66710760       0.50000000 </v>
    <v>       0.90053720       0.66688794       0.50000000 </v>
    <v>       0.04582562       0.80879365       0.50000000 </v>
    <v>       0.19009580       0.80876303       0.50000000 </v>
    <v>       0.33439660       0.80879365       0.50000000 </v>
    <v>       0.47844872       0.80897069       0.50000000 </v>
    <v>       0.62209487       0.81129474       0.50000000 </v>
    <v>       0.76062845       0.81129474       0.50000000 </v>
    <v>       0.90195054       0.80897069       0.50000000 </v>
    <v>       0.04629157       0.95154386       0.50000000 </v>
    <v>       0.18948291       0.95113037       0.50000000 </v>
    <v>       0.33307603       0.95113037       0.50000000 </v>
    <v>       0.47668087       0.95154386       0.50000000 </v>
    <v>       0.62015751       0.95313740       0.50000000 </v>
    <v>       0.76355772       0.95568687       0.50000000 </v>
    <v>       0.90440847       0.95313740       0.50000000 </v>
    <v>       0.56830873       0.56518888       0.50000000 </v>
   </varray>
  </structure>
  <varray name="forces" >
   <v>      -0.04023542      -0.02236529      -0.00000000 </v>
   <v>      -0.02331524      -0.00749598      -0.00000000 </v>
   <v>      -0.00067470      -0.01162337      -0.00000000 </v>
   <v>       0.02226994      -0.00904532      -0.00000000 </v>
   <v>       0.04082392      -0.02612746       0.00000000 </v>
   <v>      -0.03248607      -0.04808395      -0.00000000 </v>
   <v>       0.03394463      -0.04482052      -0.00000000 </v>
   <v>      -0.00214557      -0.01373112      -0.00000000 </v>
   <v>      -0.03052614      -0.02317800      -0.00000000 </v>
   <v>      -0.00961849      -0.03308697      -0.00000000 </v>
   <v>       0.00702981      -0.03359104      -0.00000000 </v>
   <v>       0.02766048      -0.02644639      -0.00000000 </v>
   <v>       0.00892135      -0.02887706      -0.00000000 </v>
   <v>       0.00203300      -0.03439616      -0.00000000 </v>
   <v>       0.03103500      -0.22322123      -0.00000000 </v>
   <v>      -0.00803248      -0.04945872      -0.00000000 </v>
   <v>      -0.03457909      -0.00446762      -0.00000000 </v>
   <v>      -0.00173298      -0.09448667      -0.00000000 </v>
   <v>       0.02973873      -0.00355627      -0.00000000 </v>
   <v>      -0.00501863      -0.04785008      -0.00000000 </v>
   <v>       0.01953116      -0.04803579      -0.00000000 </v>
   <v>       0.13156397      -0.11563952      -0.00000000 </v>
   <v>       0.01579560      -0.07123336      -0.00000000 </v>
   <v>       0.05485921      -0.14637200      -0.00000000 </v>
   <v>      -0.11385711      -0.20186163      -0.00000000 </v>
   <v>       0.11051624      -0.20045998      -0.00000000 </v>
   <v>      -0.05935480      -0.13870027      -0.00000000 </v>
   <v>       0.01831059       0.00064947       0.00000000 </v>
   <v>       0.00345625       0.03226895      -0.00000000 </v>
   <v>      -0.00608605       0.03765519       0.00000000 </v>
   <v>      -0.07760381       0.12621526       0.00000000 </v>
   <v>       0.05054407       0.39638397       0.00000000 </v>
   <v>      -0.05238794       0.39741197       0.00000000 </v>
   <v>       0.08133198       0.13027801       0.00000000 </v>
   <v>      -0.01172360       0.02498629      -0.00000000 </v>
   <v>      -0.00025837       0.03198488      -0.00000000 </v>
   <v>       0.01187234       0.02498251      -0.00000000 </v>
   <v>       0.08897545       0.04379020      -0.00000000 </v>
   <v>       1.36458607       1.25148952      -0.00000000 </v>
   <v>      -1.36495274       1.25199070      -0.00000000 </v>
   <v>      -0.08849766       0.04495611      -0.00000000 </v>
   <v>      -0.04810280      -0.00521853       0.00000000 </v>
   <v>      -0.01386199      -0.00194475      -0.00000000 </v>
   <v>       0.01332864      -0.00239206      -0.00000000 </v>
   <v>       0.04809301      -0.00655318      -0.00000000 </v>
   <v>       0.15201700       0.03730037       0.00000000 </v>
   <v>       0.00016986      -0.25041622      -0.00000000 </v>
   <v>      -0.15155388       0.03896809       0.00000000 </v>
   <v>       0.02992119       0.02598427       0.00000000 </v>
   <v>       0.01333975       0.02133527      -0.00000000 </v>
   <v>       0.00134986       0.02638336       0.00000000 </v>
   <v>      -0.01047538       0.02295084       0.00000000 </v>
   <v>      -0.02787135       0.03229436       0.00000000 </v>
   <v>      -0.01643407       0.02536305       0.00000000 </v>
   <v>       0.01018804       0.02084166      -0.00000000 </v>
   <v>       0.03756759      -0.00705544      -0.00000000 </v>
   <v>      -0.00196058       0.00234687       0.00000000 </v>
   <v>       0.01830603       0.03565890      -0.00000000 </v>
   <v>      -0.01447426       0.03599154      -0.00000000 </v>
   <v>       0.00905118       0.00464652       0.00000000 </v>
   <v>      -0.01864271       0.03953112       0.00000000 </v>
   <v>      -0.02413354       0.02101624       0.00000000 </v>
   <v>      -0.24798990       0.49569683       0.00000000 </v>
   <v>       0.07352516       0.07808709       0.00000000 </v>
   <v>      -0.01804549      -0.19719046      -0.00000000 </v>
   <v>       0.00167101       0.11108596      -0.00000000 </v>
   <v>       0.02342007      -0.19914408      -0.00000000 </v>
   <v>      -0.04466072       0.06196947       0.00000000 </v>
   <v>       0.00907241       0.04170757       0.00000000 </v>
   <v>       0.02647310      -0.02989127       0.00000000 </v>
   <v>      -0.00316739      -0.01987795       0.00000000 </v>
   <v>       0.18811365       0.11651269       0.00000000 </v>
   <v>       1.02355753      -1.56252008      -0.00000000 </v>
   <v>      -1.02179093      -1.56358201      -0.00000000 </v>
   <v>      -0.18753487       0.11249478      -0.00000000 </v>
   <v>      -0.01919354      -0.00817199      -0.00000000 </v>
   <v>       0.01356872      -0.03918713      -0.00000000 </v>
   <v>      -0.01217719      -0.03929731       0.00000000 </v>
   <v>      -0.06300426      -0.06828419      -0.00000000 </v>
   <v>      -0.27155203       0.00938055      -0.00000000 </v>
   <v>       0.27182647       0.00829319      -0.00000000 </v>
   <v>       0.06149842      -0.06845384      -0.00000000 </v>
   <v>       0.03801705      -0.01592507      -0.00000000 </v>
   <v>       0.00033863      -0.01454554      -0.00000000 </v>
   <v>      -0.03743420      -0.01532086       0.00000000 </v>
   <v>      -0.08671106      -0.01456117       0.00000000 </v>
   <v>      -0.88691655       0.24280469      -0.00000000 </v>
   <v>       0.88623727       0.24203658      -0.00000000 </v>
   <v>       0.08639806      -0.01558008       0.00000000 </v>
   <v>       0.03334998       0.01415109      -0.00000000 </v>
   <v>       0.01121371      -0.00581180       0.00000000 </v>
   <v>      -0.00982438      -0.00530184       0.00000000 </v>
   <v>      -0.03256583       0.01606283      -0.00000000 </v>
   <v>      -0.11208327       0.11797472      -0.00000000 </v>
   <v>      -0.00136455       0.01374953       0.00000000 </v>
   <v>       0.11108518       0.11580882      -0.00000000 </v>
   <v>      -0.00088472      -0.11903326      -0.00000000 </v>
  </varray>
  <varray name="stress" >
   <v>     -10.63192952       0.01630770       0.00000000 </v>
   <v>       0.01630770       3.06893936       0.00000000 </v>
   <v>       0.00000000       0.00000000      -0.42556514 </v>
  </varray>
  <energy>
   <i name="e_fr_energy">   -845.65275490 </i>
   <i name="e_wo_entrp">   -845.65275490 </i>
   <i name="e_0_energy">     -0.00000000 </i>
  </energy>
  <time name="totalsc">  105.89  111.16</time>
  <eigenvalues>
   <array>
    <dimension dim="1">band</dimension>
    <dimension dim="2">kpoint</dimension>
    <dimension dim="3">spin</dimension>
    <field>eigene</field>
    <field>occ</field>
    <set>
     <set comment="spin 1">
      <set comment="kpoint 1">
       <r>  -22.5408    1.0000 </r>
       <r>  -22.0197    1.0000 </r>
       <r>  -21.7727    1.0000 </r>
       <r>  -21.7448    1.0000 </r>
       <r>  -21.6972    1.0000 </r>
       <r>  -21.6545    1.0000 </r>
       <r>  -21.6168    1.0000 </r>
       <r>  -21.2362    1.0000 </r>
       <r>  -21.0695    1.0000 </r>
       <r>  -21.0050    1.0000 </r>
       <r>  -20.9695    1.0000 </r>
       <r>  -20.9271    1.0000 </r>
       <r>  -20.8755    1.0000 </r>
       <r>  -20.7460    1.0000 </r>
       <r>  -20.7019    1.0000 </r>
       <r>  -20.6642    1.0000 </r>
       <r>  -20.5935    1.0000 </r>
       <r>  -20.5681    1.0000 </r>
       <r>  -20.4272    1.0000 </r>
       <r>  -19.9821    1.0000 </r>
       <r>  -19.9245    1.0000 </r>
       <r>  -19.8030    1.0000 </r>
       <r>  -19.7623    1.0000 </r>
       <r>  -19.7385    1.0000 </r>
       <r>  -19.7368    1.0000 </r>
       <r>  -19.7051    1.0000 </r>
       <r>  -19.6986    1.0000 </r>
       <r>  -19.6441    1.0000 </r>
       <r>  -19.6383    1.0000 </r>
       <r>  -19.6295    1.0000 </r>
       <r>  -19.4940    1.0000 </r>
       <r>  -19.4074    1.0000 </r>
       <r>  -19.3635    1.0000 </r>
       <r>  -19.3556    1.0000 </r>
       <r>  -19.2901    1.0000 </r>
       <r>  -19.2392    1.0000 </r>
       <r>  -19.1091    1.0000 </r>
       <r>  -18.9997    1.0000 </r>
       <r>  -18.9300    1.0000 </r>
       <r>  -18.8749    1.0000 </r>
       <r>  -18.8538    1.0000 </r>
       <r>  -18.8366    1.0000 </r>
       <r>  -18.7683    1.0000 </r>
       <r>  -18.7490    1.0000 </r>
       <r>  -18.7269    1.0000 </r>
       <r>  -18.7164    1.0000 </r>
       <r>  -18.6936    1.0000 </r>
       <r>  -18.4443    1.0000 </r>
       <r>  -14.1406    1.0000 </r>
       <r>  -13.1825    1.0000 </r>
       <r>  -13.1569    1.0000 </r>
       <r>  -13.1097    1.0000 </r>
       <r>  -13.1020    1.0000 </r>
       <r>  -13.0784    1.0000 </r>
       <r>  -13.0179    1.0000 </r>
       <r>  -12.9609    1.0000 </r>
       <r>  -12.9506    1.0000 </r>
       <r>  -12.9344    1.0000 </r>
       <r>  -12.8047    1.0000 </r>
       <r>  -12.7672    1.0000 </r>
       <r>  -12.6020    1.0000 </r>
       <r>  -12.5043    1.0000 </r>
       <r>  -12.4850    1.0000 </r>
       <r>  -12.3787    1.0000 </r>
       <r>  -12.3086    1.0000 </r>
       <r>  -12.2964    1.0000 </r>
       <r>  -12.1764    1.0000 </r>
       <r>  -11.9004    1.0000 </r>
       <r>  -11.8840    1.0000 </r>
       <r>  -11.7678    1.0000 </r>
       <r>  -11.7659    1.0000 </r>
       <r>  -11.7518    1.0000 </r>
       <r>  -11.7423    1.0000 </r>
       <r>  -11.6930    1.0000 </r>
       <r>  -11.6558    1.0000 </r>
       <r>  -11.6322    1.0000 </r>
       <r>  -11.5397    1.0000 </r>
       <r>  -11.4234    1.0000 </r>
       <r>  -11.2005    1.0000 </r>
       <r>  -11.1248    1.0000 </r>
       <r>  -11.0860    1.0000 </r>
       <r>  -11.0589    1.0000 </r>
       <r>  -10.9626    1.0000 </r>
       <r>  -10.9128    1.0000 </r>
       <r>  -10.6849    1.0000 </r>
       <r>  -10.4605    1.0000 </r>
       <r>  -10.4304    1.0000 </r>
       <r>  -10.3490    1.0000 </r>
       <r>  -10.2558    1.0000 </r>
       <r>  -10.2064    1.0000 </r>
       <r>   -9.8903    1.0000 </r>
       <r>   -9.7693    1.0000 </r>
       <r>   -9.7646    1.0000 </r>
       <r>   -9.7243    1.0000 </r>
       <r>   -9.6752    1.0000 </r>
       <r>   -9.5862    1.0000 </r>
       <r>   -9.5460    1.0000 </r>
       <r>   -9.4989    1.0000 </r>
       <r>   -9.4629    1.0000 </r>
       <r>   -9.3517    1.0000 </r>
       <r>   -9.3452    1.0000 </r>
       <r>   -9.2847    1.0000 </r>
       <r>   -9.2619    1.0000 </r>
       <r>   -9.2550    1.0000 </r>
       <r>   -9.2514    1.0000 </r>
       <r>   -9.2385    1.0000 </r>
       <r>   -9.2226    1.0000 </r>
       <r>   -9.2223    1.0000 </r>
       <r>   -9.2050    1.0000 </r>
       <r>   -9.2033    1.0000 </r>
       <r>   -9.2000    1.0000 </r>
       <r>   -9.1995    1.0000 </r>
       <r>   -9.1559    1.0000 </r>
       <r>   -9.1352    1.0000 </r>
       <r>   -9.1116    1.0000 </r>
       <r>   -9.1116    1.0000 </r>
       <r>   -9.0999    1.0000 </r>
       <r>   -9.0476    1.0000 </r>
       <r>   -8.9928    1.0000 </r>
       <r>   -8.8460    1.0000 </r>
       <r>   -8.7944    1.0000 </r>
       <r>   -8.6513    1.0000 </r>
       <r>   -8.5057    1.0000 </r>
       <r>   -8.4821    1.0000 </r>
       <r>   -8.4436    1.0000 </r>
       <r>   -8.3271    1.0000 </r>
       <r>   -8.2226    1.0000 </r>
       <r>   -8.2028    1.0000 </r>
       <r>   -8.1984    1.0000 </r>
       <r>   -8.1711    1.0000 </r>
       <r>   -8.1499    1.0000 </r>
       <r>   -8.1233    1.0000 </r>
       <r>   -8.0380    1.0000 </r>
       <r>   -7.9707    1.0000 </r>
       <r>   -7.9522    1.0000 </r>
       <r>   -7.8739    1.0000 </r>
       <r>   -7.8523    1.0000 </r>
       <r>   -7.8460    1.0000 </r>
       <r>   -7.7990    1.0000 </r>
       <r>   -7.7987    1.0000 </r>
       <r>   -7.7920    1.0000 </r>
       <r>   -7.7374    1.0000 </r>
       <r>   -7.7346    1.0000 </r>
       <r>   -7.7120    1.0000 </r>
       <r>   -7.6768    1.0000 </r>
       <r>   -7.6746    1.0000 </r>
       <r>   -7.6639    1.0000 </r>
       <r>   -7.6378    1.0000 </r>
       <r>   -7.6316    1.0000 </r>
       <r>   -7.4411    1.0000 </r>
       <r>   -7.4370    1.0000 </r>
       <r>   -7.4258    1.0000 </r>
       <r>   -7.3850    1.0000 </r>
       <r>   -7.3579    1.0000 </r>
       <r>   -7.2773    1.0000 </r>
       <r>   -6.8325    1.0000 </r>
       <r>   -6.7624    1.0000 </r>
       <r>   -6.6187    1.0000 </r>
       <r>   -6.6059    1.0000 </r>
       <r>   -6.5444    1.0000 </r>
       <r>   -6.5365    1.0000 </r>
       <r>   -6.5016    1.0000 </r>
       <r>   -6.4877    1.0000 </r>
       <r>   -6.4567    1.0000 </r>
       <r>   -6.4561    1.0000 </r>
       <r>   -6.4421    1.0000 </r>
       <r>   -6.4403    1.0000 </r>
       <r>   -6.4085    1.0000 </r>
       <r>   -6.4038    1.0000 </r>
       <r>   -6.3598    1.0000 </r>
       <r>   -6.3466    1.0000 </r>
       <r>   -6.3168    1.0000 </r>
       <r>   -6.1109    1.0000 </r>
       <r>   -5.9668    1.0000 </r>
       <r>   -5.9286    1.0000 </r>
       <r>   -5.8842    1.0000 </r>
       <r>   -5.8803    1.0000 </r>
       <r>   -5.8623    1.0000 </r>
       <r>   -5.7821    1.0000 </r>
       <r>   -5.7788    1.0000 </r>
       <r>   -5.5283    1.0000 </r>
       <r>   -5.2223    1.0000 </r>
       <r>   -5.1975    1.0000 </r>
       <r>   -5.1951    1.0000 </r>
       <r>   -5.1412    1.0000 </r>
       <r>   -5.1325    1.0000 </r>
       <r>   -5.1035    1.0000 </r>
       <r>   -5.0015    1.0000 </r>
       <r>   -4.9431    1.0000 </r>
       <r>   -4.9189    1.0000 </r>
       <r>   -4.9041    1.0000 </r>
       <r>   -4.9013    1.0000 </r>
       <r>   -4.7310    1.0000 </r>
       <r>   -1.3156    1.0000 </r>
       <r>   -1.2025    0.0000 </r>
       <r>    0.0593    0.0000 </r>
       <r>    0.2049    0.0000 </r>
       <r>    0.2410    0.0000 </r>
       <r>    0.2595    0.0000 </r>
       <r>    0.2615    0.0000 </r>
       <r>    0.3027    0.0000 </r>
       <r>    0.3051    0.0000 </r>
       <r>    0.3737    0.0000 </r>
       <r>    0.3933    0.0000 </r>
       <r>    0.4347    0.0000 </r>
       <r>    0.4805    0.0000 </r>
       <r>    0.5271    0.0000 </r>
       <r>    0.6109    0.0000 </r>
       <r>    0.7454    0.0000 </r>
       <r>    0.7466    0.0000 </r>
       <r>    0.7765    0.0000 </r>
       <r>    0.8063    0.0000 </r>
       <r>    0.8110    0.0000 </r>
       <r>    0.8287    0.0000 </r>
       <r>    0.8381    0.0000 </r>
       <r>    0.8588    0.0000 </r>
       <r>    0.8719    0.0000 </r>
       <r>    0.9840    0.0000 </r>
       <r>    1.0199    0.0000 </r>
       <r>    1.0607    0.0000 </r>
       <r>    1.1190    0.0000 </r>
       <r>    1.4953    0.0000 </r>
       <r>    1.6732    0.0000 </r>
       <r>    1.6974    0.0000 </r>
       <r>    1.7057    0.0000 </r>
       <r>    1.7244    0.0000 </r>
       <r>    1.7398    0.0000 </r>
       <r>    1.7446    0.0000 </r>
       <r>    1.8075    0.0000 </r>
       <r>    1.8079    0.0000 </r>
       <r>    1.8444    0.0000 </r>
       <r>    1.8465    0.0000 </r>
       <r>    1.8786    0.0000 </r>
       <r>    1.8818    0.0000 </r>
       <r>    1.9012    0.0000 </r>
       <r>    1.9084    0.0000 </r>
       <r>    1.9313    0.0000 </r>
       <r>    1.9837    0.0000 </r>
       <r>    2.0300    0.0000 </r>
       <r>    2.1038    0.0000 </r>
       <r>    2.1102    0.0000 </r>
       <r>    2.1276    0.0000 </r>
       <r>    2.1341    0.0000 </r>
       <r>    2.1404    0.0000 </r>
      </set>
     </set>
    </set>
   </array>
  </eigenvalues>
  <separator name="orbital magnetization" >
   <v name="MAGDIPOLOUT">      0.00000000      0.00000000      0.00000000</v>
  </separator>
  <dos>
   <i name="efermi">     -1.25225906 </i>
   <total>
    <array>
     <dimension dim="1">gridpoints</dimension>
     <dimension dim="2">spin</dimension>
     <field>energy</field>
     <field>total</field>
     <field>integrated</field>
     <set>
      <set comment="spin 1">
       <r>   -23.7748     0.0000     0.0000 </r>
       <r>   -23.6843     0.0000     0.0000 </r>
       <r>   -23.5938     0.0000     0.0000 </r>
       <r>   -23.5033     0.0000     0.0000 </r>
       <r>   -23.4128     0.0000     0.0000 </r>
       <r>   -23.3223     0.0000     0.0000 </r>
       <r>   -23.2319     0.0000     0.0000 </r>
       <r>   -23.1414     0.0000     0.0000 </r>
       <r>   -23.0509     0.0000     0.0000 </r>
       <r>   -22.9604     0.0000     0.0000 </r>
       <r>   -22.8699     0.0000     0.0000 </r>
       <r>   -22.7794     0.0000     0.0000 </r>
       <r>   -22.6889     0.0000     0.0000 </r>
       <r>   -22.5984     0.0000     0.0000 </r>
       <r>   -22.5079    22.1000     2.0000 </r>
       <r>   -22.4174     0.0000     2.0000 </r>
       <r>   -22.3269     0.0000     2.0000 </r>
       <r>   -22.2364     0.0000     2.0000 </r>
       <r>   -22.1459     0.0000     2.0000 </r>
       <r>   -22.0554     0.0000     2.0000 </r>
       <r>   -21.9649    22.1000     4.0000 </r>
       <r>   -21.8744     0.0000     4.0000 </r>
       <r>   -21.7839     1.2432     4.1125 </r>
       <r>   -21.6934    58.4958     9.4062 </r>
       <r>   -21.6029    43.6638    13.9515 </r>
       <r>   -21.5124     0.0000    14.0000 </r>
       <r>   -21.4219     0.0000    14.0000 </r>
       <r>   -21.3314     0.0000    14.0000 </r>
       <r>   -21.2409     5.5461    14.5019 </r>
       <r>   -21.1504     0.0000    16.0000 </r>
       <r>   -21.0599    20.1571    17.8242 </r>
       <r>   -20.9694    33.2309    21.0073 </r>
       <r>   -20.8789    29.0981    24.6333 </r>
       <r>   -20.7884     0.0000    26.0000 </r>
       <r>   -20.6979    37.8926    29.4292 </r>
       <r>   -20.6074    22.6373    32.0486 </r>
       <r>   -20.5169    43.6628    36.0000 </r>
       <r>   -20.4264    12.0342    37.0891 </r>
       <r>   -20.3359     0.0000    38.0000 </r>
       <r>   -20.2454     0.0000    38.0000 </r>
       <r>   -20.1549     0.0000    38.0000 </r>
       <r>   -20.0644     0.0000    38.0000 </r>
       <r>   -19.9739    19.3491    39.7510 </r>
       <r>   -19.8834    22.1000    42.0000 </r>
       <r>   -19.7929    20.3875    43.8450 </r>
       <r>   -19.7024    87.0849    51.8810 </r>
       <r>   -19.6119    66.1513    59.9865 </r>
       <r>   -19.5215     0.0011    60.0001 </r>
       <r>   -19.4310    22.1084    62.0009 </r>
       <r>   -19.3405    65.9239    67.9668 </r>
       <r>   -19.2500    23.5177    70.1283 </r>
       <r>   -19.1595    20.6824    72.0000 </r>
       <r>   -19.0690    22.1000    74.0000 </r>
       <r>   -18.9785    22.0709    75.9974 </r>
       <r>   -18.8880    22.8236    78.0655 </r>
       <r>   -18.7975    65.5770    84.0000 </r>
       <r>   -18.7070    86.9606    91.8698 </r>
       <r>   -18.6165    21.4621    94.0000 </r>
       <r>   -18.5260     0.0000    94.0000 </r>
       <r>   -18.4355    19.7680    95.7890 </r>
       <r>   -18.3450     0.0000    96.0000 </r>
       <r>   -18.2545     0.0000    96.0000 </r>
       <r>   -18.1640     0.0000    96.0000 </r>
       <r>   -18.0735     0.0000    96.0000 </r>
       <r>   -17.9830     0.0000    96.0000 </r>
       <r>   -17.8925     0.0000    96.0000 </r>
       <r>   -17.8020     0.0000    96.0000 </r>
       <r>   -17.7115     0.0000    96.0000 </r>
       <r>   -17.6210     0.0000    96.0000 </r>
       <r>   -17.5305     0.0000    96.0000 </r>
       <r>   -17.4400     0.0000    96.0000 </r>
       <r>   -17.3495     0.0000    96.0000 </r>
       <r>   -17.2590     0.0000    96.0000 </r>
       <r>   -17.1685     0.0000    96.0000 </r>
       <r>   -17.0780     0.0000    96.0000 </r>
       <r>   -16.9875     0.0000    96.0000 </r>
       <r>   -16.8970     0.0000    96.0000 </r>
       <r>   -16.8065     0.0000    96.0000 </r>
       <r>   -16.7160     0.0000    96.0000 </r>
       <r>   -16.6255     0.0000    96.0000 </r>
       <r>   -16.5350     0.0000    96.0000 </r>
       <r>   -16.4445     0.0000    96.0000 </r>
       <r>   -16.3540     0.0000    96.0000 </r>
       <r>   -16.2635     0.0000    96.0000 </r>
       <r>   -16.1730     0.0000    96.0000 </r>
       <r>   -16.0825     0.0000    96.0000 </r>
       <r>   -15.9920     0.0000    96.0000 </r>
       <r>   -15.9015     0.0000    96.0000 </r>
       <r>   -15.8111     0.0000    96.0000 </r>
       <r>   -15.7206     0.0000    96.0000 </r>
       <r>   -15.6301     0.0000    96.0000 </r>
       <r>   -15.5396     0.0000    96.0000 </r>
       <r>   -15.4491     0.0000    96.0000 </r>
       <r>   -15.3586     0.0000    96.0000 </r>
       <r>   -15.2681     0.0000    96.0000 </r>
       <r>   -15.1776     0.0000    96.0000 </r>
       <r>   -15.0871     0.0000    96.0000 </r>
       <r>   -14.9966     0.0000    96.0000 </r>
       <r>   -14.9061     0.0000    96.0000 </r>
       <r>   -14.8156     0.0000    96.0000 </r>
       <r>   -14.7251     0.0000    96.0000 </r>
       <r>   -14.6346     0.0000    96.0000 </r>
       <r>   -14.5441     0.0000    96.0000 </r>
       <r>   -14.4536     0.0000    96.0000 </r>
       <r>   -14.3631     0.0000    96.0000 </r>
       <r>   -14.2726     0.0000    96.0000 </r>
       <r>   -14.1821     0.0000    96.0000 </r>
       <r>   -14.0916    22.1000    98.0000 </r>
       <r>   -14.0011     0.0000    98.0000 </r>
       <r>   -13.9106     0.0000    98.0000 </r>
       <r>   -13.8201     0.0000    98.0000 </r>
       <r>   -13.7296     0.0000    98.0000 </r>
       <r>   -13.6391     0.0000    98.0000 </r>
       <r>   -13.5486     0.0000    98.0000 </r>
       <r>   -13.4581     0.0000    98.0000 </r>
       <r>   -13.3676     0.0000    98.0000 </r>
       <r>   -13.2771     0.0000    98.0000 </r>
       <r>   -13.1866     6.1848    98.5597 </r>
       <r>   -13.0961    61.3807   105.5548 </r>
       <r>   -13.0056    43.1623   109.9180 </r>
       <r>   -12.9151    66.2299   115.9936 </r>
       <r>   -12.8246     0.0531   116.0048 </r>
       <r>   -12.7341    44.1470   120.0000 </r>
       <r>   -12.6436     0.0000   120.0000 </r>
       <r>   -12.5531    22.1000   122.0000 </r>
       <r>   -12.4626    44.1826   125.9984 </r>
       <r>   -12.3721    18.1849   127.6457 </r>
       <r>   -12.2816    43.7910   131.9630 </r>
       <r>   -12.1912     0.4113   132.0372 </r>
       <r>   -12.1007    21.6887   134.0000 </r>
       <r>   -12.0102     0.0000   134.0000 </r>
       <r>   -11.9197     0.0701   134.0063 </r>
       <r>   -11.8292    44.1300   138.0000 </r>
       <r>   -11.7387    80.9561   145.3263 </r>
       <r>   -11.6482    41.3881   149.7455 </r>
       <r>   -11.5577    21.9600   152.0110 </r>
       <r>   -11.4672    21.9783   154.0000 </r>
       <r>   -11.3767    22.1000   156.0000 </r>
       <r>   -11.2862     0.0000   156.0000 </r>
       <r>   -11.1957    16.6119   157.5033 </r>
       <r>   -11.1052    22.1142   160.0013 </r>
       <r>   -11.0147    44.1260   164.0000 </r>
       <r>   -10.9242    23.2989   166.1085 </r>
       <r>   -10.8337    20.9012   168.0000 </r>
       <r>   -10.7432     0.0000   168.0000 </r>
       <r>   -10.6527    22.1000   170.0000 </r>
       <r>   -10.5622     0.0000   170.0000 </r>
       <r>   -10.4717     1.2544   170.1135 </r>
       <r>   -10.3812    42.9457   174.0000 </r>
       <r>   -10.2907    22.1000   176.0000 </r>
       <r>   -10.2002    40.0132   179.6211 </r>
       <r>   -10.1097     0.0000   180.0000 </r>
       <r>   -10.0192     0.0000   180.0000 </r>
       <r>    -9.9287     0.0000   180.0000 </r>
       <r>    -9.8382    22.1000   182.0000 </r>
       <r>    -9.7477    43.9944   185.9814 </r>
       <r>    -9.6572    44.0704   189.9892 </r>
       <r>    -9.5667    22.0718   191.9974 </r>
       <r>    -9.4762    44.8030   196.0579 </r>
       <r>    -9.3857    21.4450   198.0000 </r>
       <r>    -9.2952    45.6956   202.1353 </r>
       <r>    -9.2047   184.1102   218.7969 </r>
       <r>    -9.1142    60.2941   229.4565 </r>
       <r>    -9.0237    43.7214   235.9993 </r>
       <r>    -8.9332    22.0999   238.0000 </r>
       <r>    -8.8427    14.9458   239.3526 </r>
       <r>    -8.7522    22.1000   242.0000 </r>
       <r>    -8.6617     1.5493   242.1402 </r>
       <r>    -8.5712     0.0000   244.0000 </r>
       <r>    -8.4808    34.7721   247.1468 </r>
       <r>    -8.3903    22.1000   250.0000 </r>
       <r>    -8.2998    22.0988   251.9999 </r>
       <r>    -8.2093    26.8367   254.4287 </r>
       <r>    -8.1188    81.2814   263.4814 </r>
       <r>    -8.0283    20.2413   265.8318 </r>
       <r>    -7.9378    43.7494   269.9592 </r>
       <r>    -7.8473    48.4142   274.3814 </r>
       <r>    -7.7568    66.3881   282.0080 </r>
       <r>    -7.6663   114.4625   292.3665 </r>
       <r>    -7.5758    44.1994   298.0000 </r>
       <r>    -7.4853     0.0000   298.0000 </r>
       <r>    -7.3948    68.1448   304.1669 </r>
       <r>    -7.3043    22.1016   308.0001 </r>
       <r>    -7.2138    22.0985   310.0000 </r>
       <r>    -7.1233     0.0000   310.0000 </r>
       <r>    -7.0328     0.0000   310.0000 </r>
       <r>    -6.9423     0.0000   310.0000 </r>
       <r>    -6.8518     0.0700   310.0063 </r>
       <r>    -6.7613    34.4734   313.1261 </r>
       <r>    -6.6708     0.0000   314.0000 </r>
       <r>    -6.5803    44.1969   317.9997 </r>
       <r>    -6.4898    73.7625   324.6753 </r>
       <r>    -6.3993   124.6298   337.2787 </r>
       <r>    -6.3088    63.4448   343.7416 </r>
       <r>    -6.2183     0.0000   344.0000 </r>
       <r>    -6.1278     0.1823   344.0165 </r>
       <r>    -6.0373    21.9178   346.0000 </r>
       <r>    -5.9468    22.1583   348.0053 </r>
       <r>    -5.8563    83.8915   355.6019 </r>
       <r>    -5.7658    43.2268   359.9119 </r>
       <r>    -5.6753     0.0000   360.0000 </r>
       <r>    -5.5848     0.0000   360.0000 </r>
       <r>    -5.4943    22.1000   362.0000 </r>
       <r>    -5.4038     0.0000   362.0000 </r>
       <r>    -5.3133     0.0000   362.0000 </r>
       <r>    -5.2228    10.3736   362.9388 </r>
       <r>    -5.1323    75.1596   370.8022 </r>
       <r>    -5.0418    22.0996   374.0000 </r>
       <r>    -4.9513    24.7950   376.2439 </r>
       <r>    -4.8608    66.3001   384.0000 </r>
       <r>    -4.7704     0.0000   384.0000 </r>
       <r>    -4.6799    22.1000   386.0000 </r>
       <r>    -4.5894     0.0000   386.0000 </r>
       <r>    -4.4989     0.0000   386.0000 </r>
       <r>    -4.4084     0.0000   386.0000 </r>
       <r>    -4.3179     0.0000   386.0000 </r>
       <r>    -4.2274     0.0000   386.0000 </r>
       <r>    -4.1369     0.0000   386.0000 </r>
       <r>    -4.0464     0.0000   386.0000 </r>
       <r>    -3.9559     0.0000   386.0000 </r>
       <r>    -3.8654     0.0000   386.0000 </r>
       <r>    -3.7749     0.0000   386.0000 </r>
       <r>    -3.6844     0.0000   386.0000 </r>
       <r>    -3.5939     0.0000   386.0000 </r>
       <r>    -3.5034     0.0000   386.0000 </r>
       <r>    -3.4129     0.0000   386.0000 </r>
       <r>    -3.3224     0.0000   386.0000 </r>
       <r>    -3.2319     0.0000   386.0000 </r>
       <r>    -3.1414     0.0000   386.0000 </r>
       <r>    -3.0509     0.0000   386.0000 </r>
       <r>    -2.9604     0.0000   386.0000 </r>
       <r>    -2.8699     0.0000   386.0000 </r>
       <r>    -2.7794     0.0000   386.0000 </r>
       <r>    -2.6889     0.0000   386.0000 </r>
       <r>    -2.5984     0.0000   386.0000 </r>
       <r>    -2.5079     0.0000   386.0000 </r>
       <r>    -2.4174     0.0000   386.0000 </r>
       <r>    -2.3269     0.0000   386.0000 </r>
       <r>    -2.2364     0.0000   386.0000 </r>
       <r>    -2.1459     0.0000   386.0000 </r>
       <r>    -2.0554     0.0000   386.0000 </r>
       <r>    -1.9649     0.0000   386.0000 </r>
       <r>    -1.8744     0.0000   386.0000 </r>
       <r>    -1.7839     0.0000   386.0000 </r>
       <r>    -1.6934     0.0000   386.0000 </r>
       <r>    -1.6029     0.0000   386.0000 </r>
       <r>    -1.5124     0.0000   386.0000 </r>
       <r>    -1.4219     0.0000   386.0000 </r>
       <r>    -1.3314     0.2744   386.0248 </r>
       <r>    -1.2409    21.8256   388.0000 </r>
       <r>    -1.1504    22.1000   390.0000 </r>
       <r>    -1.0600     0.0000   390.0000 </r>
       <r>    -0.9695     0.0000   390.0000 </r>
       <r>    -0.8790     0.0000   390.0000 </r>
       <r>    -0.7885     0.0000   390.0000 </r>
       <r>    -0.6980     0.0000   390.0000 </r>
       <r>    -0.6075     0.0000   390.0000 </r>
       <r>    -0.5170     0.0000   390.0000 </r>
       <r>    -0.4265     0.0000   390.0000 </r>
       <r>    -0.3360     0.0000   390.0000 </r>
       <r>    -0.2455     0.0000   390.0000 </r>
       <r>    -0.1550     0.0000   390.0000 </r>
       <r>    -0.0645     0.0000   390.0000 </r>
       <r>     0.0260     0.0000   390.0000 </r>
       <r>     0.1165    22.1000   392.0000 </r>
       <r>     0.2070    13.6433   393.2347 </r>
       <r>     0.2975    74.5360   400.7453 </r>
       <r>     0.3880    26.6289   406.4098 </r>
       <r>     0.4785    30.6509   410.7738 </r>
       <r>     0.5690    22.1000   414.0000 </r>
       <r>     0.6595    22.1000   416.0000 </r>
       <r>     0.7500    31.5803   418.8579 </r>
       <r>     0.8405   101.4731   429.1833 </r>
       <r>     0.9310    44.0933   434.0000 </r>
       <r>     1.0215    35.1297   437.1791 </r>
       <r>     1.1120    25.6326   440.3197 </r>
       <r>     1.2025     0.0000   442.0000 </r>
       <r>     1.2930     0.0000   442.0000 </r>
       <r>     1.3835     0.0000   442.0000 </r>
       <r>     1.4740     0.0281   442.0025 </r>
       <r>     1.5645    22.0719   444.0000 </r>
       <r>     1.6550     0.1107   444.0100 </r>
       <r>     1.7455   117.7760   454.6685 </r>
       <r>     1.8360    48.2721   460.3685 </r>
       <r>     1.9265    93.7842   472.4872 </r>
       <r>     2.0170    22.8269   476.0658 </r>
       <r>     2.1075    44.4927   480.0923 </r>
       <r>     2.1980    66.2501   488.0000 </r>
       <r>     2.2885     0.0000   488.0000 </r>
       <r>     2.3790     0.0000   488.0000 </r>
       <r>     2.4695     0.0000   488.0000 </r>
       <r>     2.5600     0.0000   488.0000 </r>
       <r>     2.6504     0.0000   488.0000 </r>
       <r>     2.7409     0.0000   488.0000 </r>
       <r>     2.8314     0.0000   488.0000 </r>
       <r>     2.9219     0.0000   488.0000 </r>
       <r>     3.0124     0.0000   488.0000 </r>
       <r>     3.1029     0.0000   488.0000 </r>
       <r>     3.1934     0.0000   488.0000 </r>
       <r>     3.2839     0.0000   488.0000 </r>
       <r>     3.3744     0.0000   488.0000 </r>
      </set>
     </set>
    </array>
   </total>
  </dos>
 </calculation>
 <structure name="finalpos" >
  <crystal>
   <varray name="basis" >
    <v>      17.59966831       0.00000000       0.00000000 </v>
    <v>      -8.79983416      15.24175986       0.00000000 </v>
    <v>       0.00000000       0.00000000      19.92151445 </v>
   </varray>
   <i name="volume">   5343.94461817 </i>
   <varray name="rec_basis" >
    <v>       0.05681925       0.03280461       0.00000000 </v>
    <v>       0.00000000       0.06560922       0.00000000 </v>
    <v>       0.00000000       0.00000000       0.05019699 </v>
   </varray>
  </crystal>
  <varray name="positions" >
   <v>       0.99943010       0.00005992       0.50000000 </v>
   <v>       0.14164706       0.99871895       0.50000000 </v>
   <v>       0.28492260       0.99841663       0.50000000 </v>
   <v>       0.42850047       0.99871895       0.50000000 </v>
   <v>       0.57205839       0.00005992       0.50000000 </v>
   <v>       0.71530655       0.00214292       0.50000000 </v>
   <v>       0.85826494       0.00214292       0.50000000 </v>
   <v>       0.00080792       0.14408264       0.50000000 </v>
   <v>       0.14259355       0.14244783       0.50000000 </v>
   <v>       0.28470221       0.14112972       0.50000000 </v>
   <v>       0.42785608       0.14112972       0.50000000 </v>
   <v>       0.57128286       0.14244783       0.50000000 </v>
   <v>       0.71470329       0.14408264       0.50000000 </v>
   <v>       0.85805263       0.14467669       0.50000000 </v>
   <v>       0.00095476       0.28713011       0.50000000 </v>
   <v>       0.14372552       0.28645370       0.50000000 </v>
   <v>       0.28540977       0.28469374       0.50000000 </v>
   <v>       0.42724431       0.28306005       0.50000000 </v>
   <v>       0.57071254       0.28469374       0.50000000 </v>
   <v>       0.71415674       0.28645370       0.50000000 </v>
   <v>       0.85760392       0.28713011       0.50000000 </v>
   <v>       0.00054479       0.42966101       0.50000000 </v>
   <v>       0.14422690       0.42957551       0.50000000 </v>
   <v>       0.28730213       0.42918005       0.50000000 </v>
   <v>       0.42797654       0.42569726       0.50000000 </v>
   <v>       0.56914930       0.42569726       0.50000000 </v>
   <v>       0.71330650       0.42918005       0.50000000 </v>
   <v>       0.85677719       0.42957551       0.50000000 </v>
   <v>       0.99928255       0.57181462       0.50000000 </v>
   <v>       0.14396064       0.57181462       0.50000000 </v>
   <v>       0.28862787       0.57181625       0.50000000 </v>
   <v>       0.43313209       0.57215564       0.50000000 </v>
   <v>       0.71045212       0.57215564       0.50000000 </v>
   <v>       0.85461695       0.57181625       0.50000000 </v>
   <v>       0.99707234       0.71370518       0.50000000 </v>
   <v>       0.14255519       0.71368182       0.50000000 </v>
   <v>       0.28806142       0.71370518       0.50000000 </v>
   <v>       0.43464191       0.71382540       0.50000000 </v>
   <v>       0.58510826       0.71626937       0.50000000 </v>
   <v>       0.70258968       0.71626937       0.50000000 </v>
   <v>       0.85061206       0.71382540       0.50000000 </v>
   <v>       0.99777175       0.85613493       0.50000000 </v>
   <v>       0.14160898       0.85591288       0.50000000 </v>
   <v>       0.28573247       0.85591288       0.50000000 </v>
   <v>       0.42979175       0.85613493       0.50000000 </v>
   <v>       0.57342541       0.85758690       0.50000000 </v>
   <v>       0.71640633       0.86138410       0.50000000 </v>
   <v>       0.85559006       0.85758690       0.50000000 </v>
   <v>       0.04754270       0.09547788       0.50000000 </v>
   <v>       0.18957833       0.09405657       0.50000000 </v>
   <v>       0.33254182       0.09365506       0.50000000 </v>
   <v>       0.47590681       0.09405657       0.50000000 </v>
   <v>       0.61936376       0.09547788       0.50000000 </v>
   <v>       0.76280004       0.09719274       0.50000000 </v>
   <v>       0.90582126       0.09719274       0.50000000 </v>
   <v>       0.04854983       0.23934281       0.50000000 </v>
   <v>       0.19048138       0.23782962       0.50000000 </v>
   <v>       0.33234878       0.23634667       0.50000000 </v>
   <v>       0.47542646       0.23634667       0.50000000 </v>
   <v>       0.61877681       0.23782962       0.50000000 </v>
   <v>       0.76222155       0.23934281       0.50000000 </v>
   <v>       0.90562797       0.23982737       0.50000000 </v>
   <v>       0.04871288       0.38176005       0.50000000 </v>
   <v>       0.19188940       0.38184213       0.50000000 </v>
   <v>       0.33352206       0.38013969       0.50000000 </v>
   <v>       0.47472270       0.37801683       0.50000000 </v>
   <v>       0.61804620       0.38013969       0.50000000 </v>
   <v>       0.76138130       0.38184213       0.50000000 </v>
   <v>       0.90504393       0.38232824       0.50000000 </v>
   <v>       0.04810654       0.52478452       0.50000000 </v>
   <v>       0.19263929       0.52476864       0.50000000 </v>
   <v>       0.33696521       0.52455433       0.50000000 </v>
   <v>       0.47833704       0.52146721       0.50000000 </v>
   <v>       0.61455874       0.52146721       0.50000000 </v>
   <v>       0.75901769       0.52455433       0.50000000 </v>
   <v>       0.90355792       0.52476864       0.50000000 </v>
   <v>       0.04642473       0.66685228       0.50000000 </v>
   <v>       0.19185612       0.66685228       0.50000000 </v>
   <v>       0.33777931       0.66688794       0.50000000 </v>
   <v>       0.48615700       0.66710760       0.50000000 </v>
   <v>       0.75237918       0.66710760       0.50000000 </v>
   <v>       0.90053720       0.66688794       0.50000000 </v>
   <v>       0.04582562       0.80879365       0.50000000 </v>
   <v>       0.19009580       0.80876303       0.50000000 </v>
   <v>       0.33439660       0.80879365       0.50000000 </v>
   <v>       0.47844872       0.80897069       0.50000000 </v>
   <v>       0.62209487       0.81129474       0.50000000 </v>
   <v>       0.76062845       0.81129474       0.50000000 </v>
   <v>       0.90195054       0.80897069       0.50000000 </v>
   <v>       0.04629157       0.95154386       0.50000000 </v>
   <v>       0.18948291       0.95113037       0.50000000 </v>
   <v>       0.33307603       0.95113037       0.50000000 </v>
   <v>       0.47668087       0.95154386       0.50000000 </v>
   <v>       0.62015751       0.95313740       0.50000000 </v>
   <v>       0.76355772       0.95568687       0.50000000 </v>
   <v>       0.90440847       0.95313740       0.50000000 </v>
   <v>       0.56830873       0.56518888       0.50000000 </v>
  </varray>
 </structure>
</modeling>
