<?xml version="1.0" encoding="ISO-8859-1"?>
<modeling>
 <generator>
  <i name="program" type="string">vasp </i>
  <i name="version" type="string">5.4.4.18Apr17-6-g9f103f2a35  </i>
  <i name="subversion" type="string">(build Oct 18 2020 22:16:12) gamma-only         parallel </i>
  <i name="platform" type="string">UA-vaughan-2020a </i>
  <i name="date" type="string">2023 03 21 </i>
  <i name="time" type="string">22:00:11 </i>
 </generator>
 <incar>
  <i type="string" name="PREC">accurate</i>
  <i type="int" name="IALGO">    38</i>
  <i type="logical" name="ADDGRID"> T  </i>
  <i type="int" name="NELMIN">     5</i>
  <i type="int" name="IBRION">    -1</i>
  <i name="EDIFF">      0.00000001</i>
  <i name="EDIFFG">     -0.00000001</i>
  <i type="int" name="NSW">     0</i>
  <i type="int" name="ISIF">     2</i>
  <i name="ENCUT">    500.00000000</i>
  <i type="logical" name="LREAL"> F  </i>
  <i type="int" name="ISMEAR">     0</i>
  <i name="SIGMA">      0.01000000</i>
  <i type="logical" name="LWAVE"> F  </i>
  <i type="logical" name="LCHARG"> F  </i>
  <v type="int" name="KPOINT_BSE">    -1     0     0     0</v>
 </incar>
 <structure name="primitive_cell" >
  <crystal>
   <varray name="basis" >
    <v>      17.59966831       0.00000000       0.00000000 </v>
    <v>      -8.79983416      15.24175986       0.00000000 </v>
    <v>       0.00000000       0.00000000      19.92151445 </v>
   </varray>
   <i name="volume">   5343.94461817 </i>
   <varray name="rec_basis" >
    <v>       0.05681925       0.03280461       0.00000000 </v>
    <v>       0.00000000       0.06560922       0.00000000 </v>
    <v>       0.00000000       0.00000000       0.05019699 </v>
   </varray>
  </crystal>
  <varray name="positions" >
   <v>      -0.00056990       0.00005992      -0.50000000 </v>
   <v>      -0.09559153      -0.04686260      -0.50000000 </v>
   <v>       0.04629157      -0.04845614      -0.50000000 </v>
   <v>       0.04754270       0.09547788      -0.50000000 </v>
   <v>      -0.14173506       0.00214292      -0.50000000 </v>
   <v>       0.14259355       0.14244783      -0.50000000 </v>
   <v>       0.14164706      -0.00128105      -0.50000000 </v>
   <v>      -0.00222825      -0.14386507      -0.50000000 </v>
   <v>      -0.14440994      -0.14241310      -0.50000000 </v>
   <v>       0.00080792       0.14408264      -0.50000000 </v>
   <v>       0.18957833       0.09405657      -0.50000000 </v>
   <v>      -0.09417874       0.09719274      -0.50000000 </v>
   <v>      -0.09804946      -0.19102931      -0.50000000 </v>
   <v>      -0.23644228      -0.04431313      -0.50000000 </v>
   <v>      -0.23937155      -0.18870526      -0.50000000 </v>
   <v>       0.19048138       0.23782962      -0.50000000 </v>
   <v>       0.04582562      -0.19120635      -0.50000000 </v>
   <v>       0.18948291      -0.04886963      -0.50000000 </v>
   <v>       0.04854983       0.23934281      -0.50000000 </v>
   <v>      -0.28359367      -0.13861590      -0.50000000 </v>
   <v>       0.28470221       0.14112972      -0.50000000 </v>
   <v>      -0.14194737       0.14467669      -0.50000000 </v>
   <v>      -0.14938794      -0.28617460      -0.50000000 </v>
   <v>       0.14160898      -0.14408712      -0.50000000 </v>
   <v>       0.14372552       0.28645370      -0.50000000 </v>
   <v>      -0.28469345       0.00214292      -0.50000000 </v>
   <v>      -0.00292766      -0.28629482      -0.50000000 </v>
   <v>       0.28540977       0.28469374      -0.50000000 </v>
   <v>       0.00095476       0.28713011      -0.50000000 </v>
   <v>       0.28492260      -0.00158337      -0.50000000 </v>
   <v>      -0.29741032      -0.28373063      -0.50000000 </v>
   <v>      -0.09946280      -0.33311206      -0.50000000 </v>
   <v>       0.33234878       0.23634667      -0.50000000 </v>
   <v>      -0.23719996       0.09719274      -0.50000000 </v>
   <v>       0.33254182       0.09365506      -0.50000000 </v>
   <v>      -0.09437203       0.23982737      -0.50000000 </v>
   <v>      -0.24762082      -0.33289240      -0.50000000 </v>
   <v>      -0.37790513      -0.18870526      -0.50000000 </v>
   <v>       0.19188940       0.38184213      -0.50000000 </v>
   <v>       0.19009580      -0.19123697      -0.50000000 </v>
   <v>      -0.37984249      -0.04686260      -0.50000000 </v>
   <v>       0.04642473      -0.33314772      -0.50000000 </v>
   <v>       0.33352206       0.38013969      -0.50000000 </v>
   <v>       0.04871288       0.38232824      -0.50000000 </v>
   <v>       0.33307603      -0.04886963      -0.50000000 </v>
   <v>      -0.41489174      -0.28316244      -0.50000000 </v>
   <v>      -0.42657459      -0.14241310      -0.50000000 </v>
   <v>       0.42724431       0.28306005      -0.50000000 </v>
   <v>      -0.14538305      -0.42818375      -0.50000000 </v>
   <v>      -0.28529671       0.14408264      -0.50000000 </v>
   <v>      -0.28954788      -0.42784436      -0.50000000 </v>
   <v>       0.42785608       0.14112972      -0.50000000 </v>
   <v>      -0.14239608       0.28713011      -0.50000000 </v>
   <v>       0.14422690       0.42957551      -0.50000000 </v>
   <v>       0.28730213       0.42918005      -0.50000000 </v>
   <v>       0.14255519      -0.28631818      -0.50000000 </v>
   <v>       0.28573247      -0.14408712      -0.50000000 </v>
   <v>      -0.24098231      -0.47544567      -0.50000000 </v>
   <v>       0.47542646       0.23634667      -0.50000000 </v>
   <v>      -0.23777845       0.23934281      -0.50000000 </v>
   <v>       0.42797654       0.42569726      -0.50000000 </v>
   <v>      -0.42794161       0.00005992      -0.50000000 </v>
   <v>      -0.00071745      -0.42818538      -0.50000000 </v>
   <v>       0.00054479       0.42966101      -0.50000000 </v>
   <v>       0.42850047      -0.00128105      -0.50000000 </v>
   <v>      -0.43169127      -0.43481112      -0.50000000 </v>
   <v>       0.47472270       0.37801683      -0.50000000 </v>
   <v>      -0.09644208      -0.47523136      -0.50000000 </v>
   <v>      -0.38063624       0.09547788      -0.50000000 </v>
   <v>       0.47590681       0.09405657      -0.50000000 </v>
   <v>      -0.09495607       0.38232824      -0.50000000 </v>
   <v>      -0.38544126      -0.47853279      -0.50000000 </v>
   <v>       0.48615700      -0.33289240      -0.50000000 </v>
   <v>       0.47844872      -0.19102931      -0.50000000 </v>
   <v>       0.19263929      -0.47523136      -0.50000000 </v>
   <v>       0.33696521      -0.47544567      -0.50000000 </v>
   <v>       0.19185612      -0.33314772      -0.50000000 </v>
   <v>       0.33439660      -0.19120635      -0.50000000 </v>
   <v>       0.43464191      -0.28617460      -0.50000000 </v>
   <v>      -0.28669350       0.42918005      -0.50000000 </v>
   <v>      -0.42928746       0.28469374      -0.50000000 </v>
   <v>      -0.28584326       0.28645370      -0.50000000 </v>
   <v>       0.28862787      -0.42818375      -0.50000000 </v>
   <v>       0.28806142      -0.28629482      -0.50000000 </v>
   <v>       0.47668087      -0.04845614      -0.50000000 </v>
   <v>       0.47833704      -0.47853279      -0.50000000 </v>
   <v>       0.04810654      -0.47521548      -0.50000000 </v>
   <v>       0.43313209      -0.42784436      -0.50000000 </v>
   <v>       0.42979175      -0.14386507      -0.50000000 </v>
   <v>      -0.43085070       0.42569726      -0.50000000 </v>
   <v>      -0.14322281       0.42957551      -0.50000000 </v>
   <v>      -0.42871714       0.14244783      -0.50000000 </v>
   <v>       0.14396064      -0.42818538      -0.50000000 </v>
   <v>      -0.23861870       0.38184213      -0.50000000 </v>
   <v>      -0.38122319       0.23782962      -0.50000000 </v>
   <v>      -0.38195380       0.38013969      -0.50000000 </v>
   <v>       0.33777931      -0.33311206      -0.50000000 </v>
  </varray>
 </structure>
 <varray name="primitive_index" >
  <v type="int" >        1 </v>
  <v type="int" >       96 </v>
  <v type="int" >       90 </v>
  <v type="int" >       49 </v>
  <v type="int" >        7 </v>
  <v type="int" >        9 </v>
  <v type="int" >        2 </v>
  <v type="int" >       42 </v>
  <v type="int" >       48 </v>
  <v type="int" >        8 </v>
  <v type="int" >       50 </v>
  <v type="int" >       55 </v>
  <v type="int" >       89 </v>
  <v type="int" >       95 </v>
  <v type="int" >       88 </v>
  <v type="int" >       57 </v>
  <v type="int" >       83 </v>
  <v type="int" >       91 </v>
  <v type="int" >       56 </v>
  <v type="int" >       47 </v>
  <v type="int" >       10 </v>
  <v type="int" >       14 </v>
  <v type="int" >       41 </v>
  <v type="int" >       43 </v>
  <v type="int" >       16 </v>
  <v type="int" >        6 </v>
  <v type="int" >       35 </v>
  <v type="int" >       17 </v>
  <v type="int" >       15 </v>
  <v type="int" >        3 </v>
  <v type="int" >       40 </v>
  <v type="int" >       82 </v>
  <v type="int" >       58 </v>
  <v type="int" >       54 </v>
  <v type="int" >       51 </v>
  <v type="int" >       62 </v>
  <v type="int" >       81 </v>
  <v type="int" >       87 </v>
  <v type="int" >       64 </v>
  <v type="int" >       84 </v>
  <v type="int" >       94 </v>
  <v type="int" >       77 </v>
  <v type="int" >       65 </v>
  <v type="int" >       63 </v>
  <v type="int" >       92 </v>
  <v type="int" >       39 </v>
  <v type="int" >       46 </v>
  <v type="int" >       18 </v>
  <v type="int" >       34 </v>
  <v type="int" >       13 </v>
  <v type="int" >       33 </v>
  <v type="int" >       11 </v>
  <v type="int" >       21 </v>
  <v type="int" >       23 </v>
  <v type="int" >       24 </v>
  <v type="int" >       36 </v>
  <v type="int" >       44 </v>
  <v type="int" >       75 </v>
  <v type="int" >       59 </v>
  <v type="int" >       61 </v>
  <v type="int" >       25 </v>
  <v type="int" >        5 </v>
  <v type="int" >       29 </v>
  <v type="int" >       22 </v>
  <v type="int" >        4 </v>
  <v type="int" >       97 </v>
  <v type="int" >       66 </v>
  <v type="int" >       76 </v>
  <v type="int" >       53 </v>
  <v type="int" >       52 </v>
  <v type="int" >       69 </v>
  <v type="int" >       74 </v>
  <v type="int" >       80 </v>
  <v type="int" >       86 </v>
  <v type="int" >       71 </v>
  <v type="int" >       72 </v>
  <v type="int" >       78 </v>
  <v type="int" >       85 </v>
  <v type="int" >       38 </v>
  <v type="int" >       27 </v>
  <v type="int" >       19 </v>
  <v type="int" >       20 </v>
  <v type="int" >       31 </v>
  <v type="int" >       37 </v>
  <v type="int" >       93 </v>
  <v type="int" >       73 </v>
  <v type="int" >       70 </v>
  <v type="int" >       32 </v>
  <v type="int" >       45 </v>
  <v type="int" >       26 </v>
  <v type="int" >       28 </v>
  <v type="int" >       12 </v>
  <v type="int" >       30 </v>
  <v type="int" >       68 </v>
  <v type="int" >       60 </v>
  <v type="int" >       67 </v>
  <v type="int" >       79 </v>
 </varray>
 <kpoints>
  <generation param="Gamma">
   <v type="int" name="divisions">       1        1        1 </v>
   <v name="usershift">      0.00000000       0.00000000       0.00000000 </v>
   <v name="genvec1">      1.00000000      -0.00000000       0.00000000 </v>
   <v name="genvec2">      0.00000000       1.00000000       0.00000000 </v>
   <v name="genvec3">      0.00000000       0.00000000       1.00000000 </v>
   <v name="shift">      0.00000000       0.00000000       0.00000000 </v>
  </generation>
  <varray name="kpointlist" >
   <v>       0.00000000       0.00000000       0.00000000 </v>
  </varray>
  <varray name="weights" >
   <v>       1.00000000 </v>
  </varray>
 </kpoints>
 <parameters>
  <separator name="general" >
   <i type="string" name="SYSTEM">unknown system</i>
   <i type="logical" name="LCOMPAT"> F  </i>
  </separator>
  <separator name="electronic" >
   <i type="string" name="PREC">accura</i>
   <i name="ENMAX">    500.00000000</i>
   <i name="ENAUG">    644.87300000</i>
   <i name="EDIFF">      0.00000001</i>
   <i type="int" name="IALGO">    38</i>
   <i type="int" name="IWAVPR">    10</i>
   <i type="int" name="NBANDS">   244</i>
   <i name="NELECT">    388.00000000</i>
   <i type="int" name="TURBO">     0</i>
   <i type="int" name="IRESTART">     0</i>
   <i type="int" name="NREBOOT">     0</i>
   <i type="int" name="NMIN">     0</i>
   <i name="EREF">      0.00000000</i>
   <separator name="electronic smearing" >
    <i type="int" name="ISMEAR">     0</i>
    <i name="SIGMA">      0.01000000</i>
    <i name="KSPACING">      0.50000000</i>
    <i type="logical" name="KGAMMA"> T  </i>
   </separator>
   <separator name="electronic projectors" >
    <i type="logical" name="LREAL"> F  </i>
    <v name="ROPT">      0.00000000      0.00000000      0.00000000</v>
    <i type="int" name="LMAXPAW">  -100</i>
    <i type="int" name="LMAXMIX">     2</i>
    <i type="logical" name="NLSPLINE"> F  </i>
   </separator>
   <separator name="electronic startup" >
    <i type="int" name="ISTART">     0</i>
    <i type="int" name="ICHARG">     2</i>
    <i type="int" name="INIWAV">     1</i>
   </separator>
   <separator name="electronic spin" >
    <i type="int" name="ISPIN">     1</i>
    <i type="logical" name="LNONCOLLINEAR"> F  </i>
    <v name="MAGMOM">      1.00000000      1.00000000      1.00000000      1.00000000      1.00000000      1.00000000      1.00000000      1.00000000      1.00000000      1.00000000      1.00000000      1.00000000      1.00000000      1.00000000      1.00000000      1.00000000      1.00000000      1.00000000      1.00000000      1.00000000
      1.00000000      1.00000000      1.00000000      1.00000000      1.00000000      1.00000000      1.00000000      1.00000000      1.00000000      1.00000000      1.00000000      1.00000000      1.00000000      1.00000000      1.00000000      1.00000000      1.00000000      1.00000000      1.00000000      1.00000000
      1.00000000      1.00000000      1.00000000      1.00000000      1.00000000      1.00000000      1.00000000      1.00000000      1.00000000      1.00000000      1.00000000      1.00000000      1.00000000      1.00000000      1.00000000      1.00000000      1.00000000      1.00000000      1.00000000      1.00000000
      1.00000000      1.00000000      1.00000000      1.00000000      1.00000000      1.00000000      1.00000000      1.00000000      1.00000000      1.00000000      1.00000000      1.00000000      1.00000000      1.00000000      1.00000000      1.00000000      1.00000000      1.00000000      1.00000000      1.00000000
      1.00000000      1.00000000      1.00000000      1.00000000      1.00000000      1.00000000      1.00000000      1.00000000      1.00000000      1.00000000      1.00000000      1.00000000      1.00000000      1.00000000      1.00000000      1.00000000      1.00000000</v>
    <i name="NUPDOWN">     -1.00000000</i>
    <i type="logical" name="LSORBIT"> F  </i>
    <v name="SAXIS">      0.00000000      0.00000000      1.00000000</v>
    <i type="logical" name="LSPIRAL"> F  </i>
    <v name="QSPIRAL">      0.00000000      0.00000000      0.00000000</v>
    <i type="logical" name="LZEROZ"> F  </i>
   </separator>
   <separator name="electronic exchange-correlation" >
    <i type="logical" name="LASPH"> F  </i>
    <i type="logical" name="LMETAGGA"> F  </i>
   </separator>
   <separator name="electronic convergence" >
    <i type="int" name="NELM">    60</i>
    <i type="int" name="NELMDL">    -5</i>
    <i type="int" name="NELMIN">     5</i>
    <i name="ENINI">    500.00000000</i>
    <separator name="electronic convergence detail" >
     <i type="logical" name="LDIAG"> T  </i>
     <i type="logical" name="LSUBROT"> F  </i>
     <i name="WEIMIN">      0.00000000</i>
     <i name="EBREAK">      0.00000000</i>
     <i name="DEPER">      0.30000000</i>
     <i type="int" name="NRMM">     4</i>
     <i name="TIME">      0.40000000</i>
    </separator>
   </separator>
   <separator name="electronic mixer" >
    <i name="AMIX">      0.40000000</i>
    <i name="BMIX">      1.00000000</i>
    <i name="AMIN">      0.10000000</i>
    <i name="AMIX_MAG">      1.60000000</i>
    <i name="BMIX_MAG">      1.00000000</i>
    <separator name="electronic mixer details" >
     <i type="int" name="IMIX">     4</i>
     <i type="logical" name="MIXFIRST"> F  </i>
     <i type="int" name="MAXMIX">   -45</i>
     <i name="WC">    100.00000000</i>
     <i type="int" name="INIMIX">     1</i>
     <i type="int" name="MIXPRE">     1</i>
     <i type="int" name="MREMOVE">     5</i>
    </separator>
   </separator>
   <separator name="electronic dipolcorrection" >
    <i type="logical" name="LDIPOL"> F  </i>
    <i type="logical" name="LMONO"> F  </i>
    <i type="int" name="IDIPOL">     0</i>
    <i name="EPSILON">      1.00000000</i>
    <v name="DIPOL">   -100.00000000   -100.00000000   -100.00000000</v>
    <i name="EFIELD">      0.00000000</i>
   </separator>
  </separator>
  <separator name="grids" >
   <i type="int" name="NGX">   128</i>
   <i type="int" name="NGY">   128</i>
   <i type="int" name="NGZ">   150</i>
   <i type="int" name="NGXF">   256</i>
   <i type="int" name="NGYF">   256</i>
   <i type="int" name="NGZF">   300</i>
   <i type="logical" name="ADDGRID"> T  </i>
  </separator>
  <separator name="ionic" >
   <i type="int" name="NSW">     0</i>
   <i type="int" name="IBRION">    -1</i>
   <i type="int" name="MDALGO">     0</i>
   <i type="int" name="ISIF">     2</i>
   <i name="PSTRESS">      0.00000000</i>
   <i name="EDIFFG">     -0.00000001</i>
   <i type="int" name="NFREE">     0</i>
   <i name="POTIM">      0.50000000</i>
   <i name="SMASS">     -3.00000000</i>
   <i name="SCALEE">      1.00000000</i>
  </separator>
  <separator name="ionic md" >
   <i name="TEBEG">      0.00010000</i>
   <i name="TEEND">      0.00010000</i>
   <i type="int" name="NBLOCK">     1</i>
   <i type="int" name="KBLOCK">     1</i>
   <i type="int" name="NPACO">   256</i>
   <i name="APACO">     16.00000000</i>
  </separator>
  <separator name="symmetry" >
   <i type="int" name="ISYM">     2</i>
   <i name="SYMPREC">      0.00001000</i>
  </separator>
  <separator name="dos" >
   <i type="int" name="LORBIT">     0</i>
   <v name="RWIGS">     -1.00000000     -1.00000000     -1.00000000</v>
   <i type="int" name="NEDOS">   301</i>
   <i name="EMIN">     10.00000000</i>
   <i name="EMAX">    -10.00000000</i>
   <i name="EFERMI">      0.00000000</i>
  </separator>
  <separator name="writing" >
   <i type="int" name="NWRITE">     2</i>
   <i type="logical" name="LWAVE"> F  </i>
   <i type="logical" name="LDOWNSAMPLE"> F  </i>
   <i type="logical" name="LCHARG"> F  </i>
   <i type="logical" name="LPARD"> F  </i>
   <i type="logical" name="LVTOT"> F  </i>
   <i type="logical" name="LVHAR"> F  </i>
   <i type="logical" name="LELF"> F  </i>
   <i type="logical" name="LOPTICS"> F  </i>
   <v name="STM">      0.00000000      0.00000000      0.00000000      0.00000000      0.00000000      0.00000000      0.00000000</v>
  </separator>
  <separator name="performance" >
   <i type="int" name="NPAR">     4</i>
   <i type="int" name="NSIM">     4</i>
   <i type="int" name="NBLK">    -1</i>
   <i type="logical" name="LPLANE"> T  </i>
   <i type="logical" name="LSCALAPACK"> T  </i>
   <i type="logical" name="LSCAAWARE"> F  </i>
   <i type="logical" name="LSCALU"> F  </i>
   <i type="logical" name="LASYNC"> F  </i>
   <i type="logical" name="LORBITALREAL"> F  </i>
  </separator>
  <separator name="miscellaneous" >
   <i type="int" name="IDIOT">     3</i>
   <i type="int" name="ISPECIAL">     0</i>
   <i type="logical" name="LMUSIC"> F  </i>
   <v name="POMASS">     10.81100000     14.00100000     12.01100000</v>
   <v name="DARWINR">      0.00000000      0.00000000      0.00000000</v>
   <v name="DARWINV">      1.00000000      1.00000000      1.00000000</v>
   <i type="logical" name="LCORR"> T  </i>
  </separator>
  <i type="logical" name="GGA_COMPAT"> T  </i>
  <i type="logical" name="LBERRY"> F  </i>
  <i type="int" name="ICORELEVEL">     0</i>
  <i type="logical" name="LDAU"> F  </i>
  <i type="int" name="I_CONSTRAINED_M">     0</i>
  <separator name="electronic exchange-correlation" >
   <i type="string" name="GGA">--</i>
   <i type="int" name="VOSKOWN">     0</i>
   <i type="logical" name="LHFCALC"> F  </i>
   <i type="string" name="PRECFOCK"></i>
   <i type="logical" name="LSYMGRAD"> F  </i>
   <i type="logical" name="LHFONE"> F  </i>
   <i type="logical" name="LRHFCALC"> F  </i>
   <i type="logical" name="LTHOMAS"> F  </i>
   <i type="logical" name="LMODELHF"> F  </i>
   <i name="ENCUT4O">     -1.00000000</i>
   <i type="int" name="EXXOEP">     0</i>
   <i type="int" name="FOURORBIT">     0</i>
   <i name="AEXX">      0.00000000</i>
   <i name="HFALPHA">      0.00000000</i>
   <i name="MCALPHA">      0.00000000</i>
   <i name="ALDAX">      1.00000000</i>
   <i name="AGGAX">      1.00000000</i>
   <i name="ALDAC">      1.00000000</i>
   <i name="AGGAC">      1.00000000</i>
   <i type="int" name="NKREDX">     1</i>
   <i type="int" name="NKREDY">     1</i>
   <i type="int" name="NKREDZ">     1</i>
   <i type="logical" name="SHIFTRED"> F  </i>
   <i type="logical" name="ODDONLY"> F  </i>
   <i type="logical" name="EVENONLY"> F  </i>
   <i type="int" name="LMAXFOCK">     0</i>
   <i type="int" name="NMAXFOCKAE">     0</i>
   <i type="logical" name="LFOCKAEDFT"> F  </i>
   <i name="HFSCREEN">      0.00000000</i>
   <i name="HFSCREENC">      0.00000000</i>
   <i type="int" name="NBANDSGWLOW">     0</i>
  </separator>
  <separator name="vdW DFT" >
   <i type="logical" name="LUSE_VDW"> F  </i>
   <i name="Zab_VDW">     -0.84910000</i>
   <i name="PARAM1">      0.12340000</i>
   <i name="PARAM2">      1.00000000</i>
   <i name="PARAM3">      0.00000000</i>
  </separator>
  <separator name="model GW" >
   <i type="int" name="MODEL_GW">     0</i>
   <i name="MODEL_EPS0">     33.05532754</i>
   <i name="MODEL_ALPHA">      1.00000000</i>
  </separator>
  <separator name="linear response parameters" >
   <i type="logical" name="LEPSILON"> F  </i>
   <i type="logical" name="LRPA"> F  </i>
   <i type="logical" name="LNABLA"> F  </i>
   <i type="logical" name="LVEL"> F  </i>
   <i type="int" name="KINTER">     0</i>
   <i name="CSHIFT">      0.10000000</i>
   <i name="OMEGAMAX">     -1.00000000</i>
   <i name="DEG_THRESHOLD">      0.00200000</i>
   <i name="RTIME">     -0.10000000</i>
   <i name="WPLASMAI">      0.00000000</i>
   <v name="DFIELD">      0.00000000      0.00000000      0.00000000</v>
   <v name="WPLASMA">      0.00000000      0.00000000      0.00000000      0.00000000      0.00000000      0.00000000      0.00000000      0.00000000      0.00000000</v>
  </separator>
  <separator name="orbital magnetization" >
   <i type="logical" name="NUCIND"> F  </i>
   <v name="MAGPOS">      0.00000000      0.00000000      0.00000000</v>
   <i type="logical" name="LNICSALL"> T  </i>
   <i type="logical" name="ORBITALMAG"> F  </i>
   <i type="logical" name="LMAGBLOCH"> F  </i>
   <i type="logical" name="LCHIMAG"> F  </i>
   <i type="logical" name="LGAUGE"> T  </i>
   <i type="int" name="MAGATOM">     0</i>
   <v name="MAGDIPOL">      0.00000000      0.00000000      0.00000000</v>
   <v name="AVECCONST">      0.00000000      0.00000000      0.00000000</v>
  </separator>
  <separator name="response functions" >
   <i type="logical" name="LADDER"> F  </i>
   <i type="logical" name="LRPAFORCE"> F  </i>
   <i type="logical" name="LFXC"> F  </i>
   <i type="logical" name="LHARTREE"> T  </i>
   <i type="int" name="IBSE">     0</i>
   <v type="int" name="KPOINT">    -1     0     0     0</v>
   <i type="logical" name="LTCTE"> F  </i>
   <i type="logical" name="LTETE"> F  </i>
   <i type="logical" name="LTRIPLET"> F  </i>
   <i type="logical" name="LFXCEPS"> F  </i>
   <i type="logical" name="LFXHEG"> F  </i>
   <i type="int" name="NATURALO">     2</i>
   <i type="logical" name="L2ORDER"> F  </i>
   <i type="logical" name="LMP2LT"> F  </i>
   <i type="logical" name="LUSEW"> F  </i>
   <i name="ENCUTGW">     -2.00000000</i>
   <i name="ENCUTGWSOFT">     -2.00000000</i>
   <i name="ENCUTLF">     -1.00000000</i>
   <i type="int" name="LMAXMP2">    -1</i>
   <i name="SCISSOR">      0.00000000</i>
   <i type="int" name="NOMEGA">     0</i>
   <i type="int" name="NOMEGAR">     0</i>
   <i type="int" name="NBANDSGW">    -1</i>
   <i type="int" name="NBANDSO">    -1</i>
   <i type="int" name="NBANDSV">    -1</i>
   <i type="int" name="NELM">     1</i>
   <i type="int" name="NELMHF">     1</i>
   <i type="int" name="DIM">     3</i>
   <i type="int" name="ANTIRES">     0</i>
   <i name="OMEGAMAX">    -30.00000000</i>
   <i name="OMEGAMIN">    -30.00000000</i>
   <i name="OMEGATL">   -200.00000000</i>
   <i type="int" name="OMEGAGRID">   140</i>
   <i name="CSHIFT">     -0.10000000</i>
   <i type="logical" name="SELFENERGY"> F  </i>
   <i type="logical" name="LSPECTRAL"> F  </i>
   <i type="logical" name="LSPECTRALGW"> F  </i>
   <i type="logical" name="LSINGLES"> F  </i>
   <i type="logical" name="LFERMIGW"> F  </i>
   <i type="logical" name="ODDONLYGW"> F  </i>
   <i type="logical" name="EVENONLYGW"> F  </i>
   <i type="int" name="NKREDLFX">     1</i>
   <i type="int" name="NKREDLFY">     1</i>
   <i type="int" name="NKREDLFZ">     1</i>
   <i type="int" name="MAXMEM">  2800</i>
   <i type="int" name="TELESCOPE">     0</i>
   <i type="int" name="TAUPAR">     1</i>
   <i type="int" name="OMEGAPAR">    -1</i>
   <i name="LAMBDA">      1.00000000</i>
  </separator>
  <separator name="External order field" >
   <i name="OFIELD_KAPPA">      0.00000000</i>
   <v name="OFIELD_K">      0.00000000      0.00000000      0.00000000</v>
   <i name="OFIELD_Q6_NEAR">      0.00000000</i>
   <i name="OFIELD_Q6_FAR">      0.00000000</i>
   <i name="OFIELD_A">      0.00000000</i>
  </separator>
 </parameters>
 <atominfo>
  <atoms>      97 </atoms>
  <types>       3 </types>
  <array name="atoms" >
   <dimension dim="1">ion</dimension>
   <field type="string">element</field>
   <field type="int">atomtype</field>
   <set>
    <rc><c>B </c><c>   1</c></rc>
    <rc><c>B </c><c>   1</c></rc>
    <rc><c>B </c><c>   1</c></rc>
    <rc><c>B </c><c>   1</c></rc>
    <rc><c>B </c><c>   1</c></rc>
    <rc><c>B </c><c>   1</c></rc>
    <rc><c>B </c><c>   1</c></rc>
    <rc><c>B </c><c>   1</c></rc>
    <rc><c>B </c><c>   1</c></rc>
    <rc><c>B </c><c>   1</c></rc>
    <rc><c>B </c><c>   1</c></rc>
    <rc><c>B </c><c>   1</c></rc>
    <rc><c>B </c><c>   1</c></rc>
    <rc><c>B </c><c>   1</c></rc>
    <rc><c>B </c><c>   1</c></rc>
    <rc><c>B </c><c>   1</c></rc>
    <rc><c>B </c><c>   1</c></rc>
    <rc><c>B </c><c>   1</c></rc>
    <rc><c>B </c><c>   1</c></rc>
    <rc><c>B </c><c>   1</c></rc>
    <rc><c>B </c><c>   1</c></rc>
    <rc><c>B </c><c>   1</c></rc>
    <rc><c>B </c><c>   1</c></rc>
    <rc><c>B </c><c>   1</c></rc>
    <rc><c>B </c><c>   1</c></rc>
    <rc><c>B </c><c>   1</c></rc>
    <rc><c>B </c><c>   1</c></rc>
    <rc><c>B </c><c>   1</c></rc>
    <rc><c>B </c><c>   1</c></rc>
    <rc><c>B </c><c>   1</c></rc>
    <rc><c>B </c><c>   1</c></rc>
    <rc><c>B </c><c>   1</c></rc>
    <rc><c>B </c><c>   1</c></rc>
    <rc><c>B </c><c>   1</c></rc>
    <rc><c>B </c><c>   1</c></rc>
    <rc><c>B </c><c>   1</c></rc>
    <rc><c>B </c><c>   1</c></rc>
    <rc><c>B </c><c>   1</c></rc>
    <rc><c>B </c><c>   1</c></rc>
    <rc><c>B </c><c>   1</c></rc>
    <rc><c>B </c><c>   1</c></rc>
    <rc><c>B </c><c>   1</c></rc>
    <rc><c>B </c><c>   1</c></rc>
    <rc><c>B </c><c>   1</c></rc>
    <rc><c>B </c><c>   1</c></rc>
    <rc><c>B </c><c>   1</c></rc>
    <rc><c>B </c><c>   1</c></rc>
    <rc><c>B </c><c>   1</c></rc>
    <rc><c>N </c><c>   2</c></rc>
    <rc><c>N </c><c>   2</c></rc>
    <rc><c>N </c><c>   2</c></rc>
    <rc><c>N </c><c>   2</c></rc>
    <rc><c>N </c><c>   2</c></rc>
    <rc><c>N </c><c>   2</c></rc>
    <rc><c>N </c><c>   2</c></rc>
    <rc><c>N </c><c>   2</c></rc>
    <rc><c>N </c><c>   2</c></rc>
    <rc><c>N </c><c>   2</c></rc>
    <rc><c>N </c><c>   2</c></rc>
    <rc><c>N </c><c>   2</c></rc>
    <rc><c>N </c><c>   2</c></rc>
    <rc><c>N </c><c>   2</c></rc>
    <rc><c>N </c><c>   2</c></rc>
    <rc><c>N </c><c>   2</c></rc>
    <rc><c>N </c><c>   2</c></rc>
    <rc><c>N </c><c>   2</c></rc>
    <rc><c>N </c><c>   2</c></rc>
    <rc><c>N </c><c>   2</c></rc>
    <rc><c>N </c><c>   2</c></rc>
    <rc><c>N </c><c>   2</c></rc>
    <rc><c>N </c><c>   2</c></rc>
    <rc><c>N </c><c>   2</c></rc>
    <rc><c>N </c><c>   2</c></rc>
    <rc><c>N </c><c>   2</c></rc>
    <rc><c>N </c><c>   2</c></rc>
    <rc><c>N </c><c>   2</c></rc>
    <rc><c>N </c><c>   2</c></rc>
    <rc><c>N </c><c>   2</c></rc>
    <rc><c>N </c><c>   2</c></rc>
    <rc><c>N </c><c>   2</c></rc>
    <rc><c>N </c><c>   2</c></rc>
    <rc><c>N </c><c>   2</c></rc>
    <rc><c>N </c><c>   2</c></rc>
    <rc><c>N </c><c>   2</c></rc>
    <rc><c>N </c><c>   2</c></rc>
    <rc><c>N </c><c>   2</c></rc>
    <rc><c>N </c><c>   2</c></rc>
    <rc><c>N </c><c>   2</c></rc>
    <rc><c>N </c><c>   2</c></rc>
    <rc><c>N </c><c>   2</c></rc>
    <rc><c>N </c><c>   2</c></rc>
    <rc><c>N </c><c>   2</c></rc>
    <rc><c>N </c><c>   2</c></rc>
    <rc><c>N </c><c>   2</c></rc>
    <rc><c>N </c><c>   2</c></rc>
    <rc><c>N </c><c>   2</c></rc>
    <rc><c>C </c><c>   3</c></rc>
   </set>
  </array>
  <array name="atomtypes" >
   <dimension dim="1">type</dimension>
   <field type="int">atomspertype</field>
   <field type="string">element</field>
   <field>mass</field>
   <field>valence</field>
   <field type="string">pseudopotential</field>
   <set>
    <rc><c>  48</c><c>B </c><c>     10.81100000</c><c>      3.00000000</c><c>  PAW_PBE B 06Sep2000                   </c></rc>
    <rc><c>  48</c><c>N </c><c>     14.00100000</c><c>      5.00000000</c><c>  PAW_PBE N 08Apr2002                   </c></rc>
    <rc><c>   1</c><c>C </c><c>     12.01100000</c><c>      4.00000000</c><c>  PAW_PBE C 08Apr2002                   </c></rc>
   </set>
  </array>
 </atominfo>
 <structure name="initialpos" >
  <crystal>
   <varray name="basis" >
    <v>      17.59966831       0.00000000       0.00000000 </v>
    <v>      -8.79983416      15.24175986       0.00000000 </v>
    <v>       0.00000000       0.00000000      19.92151445 </v>
   </varray>
   <i name="volume">   5343.94461817 </i>
   <varray name="rec_basis" >
    <v>       0.05681925       0.03280461       0.00000000 </v>
    <v>       0.00000000       0.06560922       0.00000000 </v>
    <v>       0.00000000       0.00000000       0.05019699 </v>
   </varray>
  </crystal>
  <varray name="positions" >
   <v>       0.99943010       0.00005992       0.50000000 </v>
   <v>       0.14164706       0.99871895       0.50000000 </v>
   <v>       0.28492260       0.99841663       0.50000000 </v>
   <v>       0.42850047       0.99871895       0.50000000 </v>
   <v>       0.57205839       0.00005992       0.50000000 </v>
   <v>       0.71530655       0.00214292       0.50000000 </v>
   <v>       0.85826494       0.00214292       0.50000000 </v>
   <v>       0.00080792       0.14408264       0.50000000 </v>
   <v>       0.14259355       0.14244783       0.50000000 </v>
   <v>       0.28470221       0.14112972       0.50000000 </v>
   <v>       0.42785608       0.14112972       0.50000000 </v>
   <v>       0.57128286       0.14244783       0.50000000 </v>
   <v>       0.71470329       0.14408264       0.50000000 </v>
   <v>       0.85805263       0.14467669       0.50000000 </v>
   <v>       0.00095476       0.28713011       0.50000000 </v>
   <v>       0.14372552       0.28645370       0.50000000 </v>
   <v>       0.28540977       0.28469374       0.50000000 </v>
   <v>       0.42724431       0.28306005       0.50000000 </v>
   <v>       0.57071254       0.28469374       0.50000000 </v>
   <v>       0.71415674       0.28645370       0.50000000 </v>
   <v>       0.85760392       0.28713011       0.50000000 </v>
   <v>       0.00054479       0.42966101       0.50000000 </v>
   <v>       0.14422690       0.42957551       0.50000000 </v>
   <v>       0.28730213       0.42918005       0.50000000 </v>
   <v>       0.42797654       0.42569726       0.50000000 </v>
   <v>       0.56914930       0.42569726       0.50000000 </v>
   <v>       0.71330650       0.42918005       0.50000000 </v>
   <v>       0.85677719       0.42957551       0.50000000 </v>
   <v>       0.99928255       0.57181462       0.50000000 </v>
   <v>       0.14396064       0.57181462       0.50000000 </v>
   <v>       0.28862787       0.57181625       0.50000000 </v>
   <v>       0.43313209       0.57215564       0.50000000 </v>
   <v>       0.71045212       0.57215564       0.50000000 </v>
   <v>       0.85461695       0.57181625       0.50000000 </v>
   <v>       0.99707234       0.71370518       0.50000000 </v>
   <v>       0.14255519       0.71368182       0.50000000 </v>
   <v>       0.28806142       0.71370518       0.50000000 </v>
   <v>       0.43464191       0.71382540       0.50000000 </v>
   <v>       0.58510826       0.71683756       0.50000000 </v>
   <v>       0.70258968       0.71626937       0.50000000 </v>
   <v>       0.85061206       0.71382540       0.50000000 </v>
   <v>       0.99777175       0.85613493       0.50000000 </v>
   <v>       0.14160898       0.85591288       0.50000000 </v>
   <v>       0.28573247       0.85591288       0.50000000 </v>
   <v>       0.42979175       0.85613493       0.50000000 </v>
   <v>       0.57342541       0.85758690       0.50000000 </v>
   <v>       0.71640633       0.86138410       0.50000000 </v>
   <v>       0.85559006       0.85758690       0.50000000 </v>
   <v>       0.04754270       0.09547788       0.50000000 </v>
   <v>       0.18957833       0.09405657       0.50000000 </v>
   <v>       0.33254182       0.09365506       0.50000000 </v>
   <v>       0.47590681       0.09405657       0.50000000 </v>
   <v>       0.61936376       0.09547788       0.50000000 </v>
   <v>       0.76280004       0.09719274       0.50000000 </v>
   <v>       0.90582126       0.09719274       0.50000000 </v>
   <v>       0.04854983       0.23934281       0.50000000 </v>
   <v>       0.19048138       0.23782962       0.50000000 </v>
   <v>       0.33234878       0.23634667       0.50000000 </v>
   <v>       0.47542646       0.23634667       0.50000000 </v>
   <v>       0.61877681       0.23782962       0.50000000 </v>
   <v>       0.76222155       0.23934281       0.50000000 </v>
   <v>       0.90562797       0.23982737       0.50000000 </v>
   <v>       0.04871288       0.38232824       0.50000000 </v>
   <v>       0.19188940       0.38184213       0.50000000 </v>
   <v>       0.33352206       0.38013969       0.50000000 </v>
   <v>       0.47472270       0.37801683       0.50000000 </v>
   <v>       0.61804620       0.38013969       0.50000000 </v>
   <v>       0.76138130       0.38184213       0.50000000 </v>
   <v>       0.90504393       0.38232824       0.50000000 </v>
   <v>       0.04810654       0.52478452       0.50000000 </v>
   <v>       0.19263929       0.52476864       0.50000000 </v>
   <v>       0.33696521       0.52455433       0.50000000 </v>
   <v>       0.47833704       0.52146721       0.50000000 </v>
   <v>       0.61455874       0.52146721       0.50000000 </v>
   <v>       0.75901769       0.52455433       0.50000000 </v>
   <v>       0.90355792       0.52476864       0.50000000 </v>
   <v>       0.04642473       0.66685228       0.50000000 </v>
   <v>       0.19185612       0.66685228       0.50000000 </v>
   <v>       0.33777931       0.66688794       0.50000000 </v>
   <v>       0.48615700       0.66710760       0.50000000 </v>
   <v>       0.75237918       0.66710760       0.50000000 </v>
   <v>       0.90053720       0.66688794       0.50000000 </v>
   <v>       0.04582562       0.80879365       0.50000000 </v>
   <v>       0.19009580       0.80876303       0.50000000 </v>
   <v>       0.33439660       0.80879365       0.50000000 </v>
   <v>       0.47844872       0.80897069       0.50000000 </v>
   <v>       0.62209487       0.81129474       0.50000000 </v>
   <v>       0.76062845       0.81129474       0.50000000 </v>
   <v>       0.90195054       0.80897069       0.50000000 </v>
   <v>       0.04629157       0.95154386       0.50000000 </v>
   <v>       0.18948291       0.95113037       0.50000000 </v>
   <v>       0.33307603       0.95113037       0.50000000 </v>
   <v>       0.47668087       0.95154386       0.50000000 </v>
   <v>       0.62015751       0.95313740       0.50000000 </v>
   <v>       0.76355772       0.95568687       0.50000000 </v>
   <v>       0.90440847       0.95313740       0.50000000 </v>
   <v>       0.56830873       0.56518888       0.50000000 </v>
  </varray>
 </structure>
 <calculation>
  <scstep>
   <time name="dav">    2.37    2.39</time>
   <time name="total">    2.74    2.86</time>
   <energy>
    <i name="alphaZ">    156.50993408 </i>
    <i name="ewald">  58207.55132941 </i>
    <i name="hartreedc"> -70374.64839141 </i>
    <i name="XCdc">   1302.12194484 </i>
    <i name="pawpsdc">  12033.28670802 </i>
    <i name="pawaedc"> -12049.96799276 </i>
    <i name="eentropy">     -0.00000000 </i>
    <i name="bandstr">   -904.73826632 </i>
    <i name="atom">  16260.93880140 </i>
    <i name="e_fr_energy">   4631.05406725 </i>
    <i name="e_wo_entrp">   4631.05406725 </i>
    <i name="e_0_energy">   4631.05406725 </i>
   </energy>
  </scstep>
  <scstep>
   <time name="dav">    2.99    3.03</time>
   <time name="total">    2.99    3.03</time>
   <energy>
    <i name="e_fr_energy">    216.77882110 </i>
    <i name="e_wo_entrp">    216.77882110 </i>
    <i name="e_0_energy">    216.77882110 </i>
   </energy>
  </scstep>
  <scstep>
   <time name="dav">    2.47    2.51</time>
   <time name="total">    2.47    2.51</time>
   <energy>
    <i name="e_fr_energy">   -867.47399601 </i>
    <i name="e_wo_entrp">   -867.47399601 </i>
    <i name="e_0_energy">   -867.47399601 </i>
   </energy>
  </scstep>
  <scstep>
   <time name="dav">    2.47    2.50</time>
   <time name="total">    2.47    2.50</time>
   <energy>
    <i name="e_fr_energy">   -934.20978893 </i>
    <i name="e_wo_entrp">   -934.20978893 </i>
    <i name="e_0_energy">   -934.20978893 </i>
   </energy>
  </scstep>
  <scstep>
   <time name="dav">    2.50    2.53</time>
   <time name="total">    2.94    2.98</time>
   <energy>
    <i name="e_fr_energy">   -935.79033695 </i>
    <i name="e_wo_entrp">   -935.79033695 </i>
    <i name="e_0_energy">   -935.79033695 </i>
   </energy>
  </scstep>
  <scstep>
   <time name="dav">    2.33    2.35</time>
   <time name="total">    3.12    3.16</time>
   <energy>
    <i name="e_fr_energy">   -858.73603386 </i>
    <i name="e_wo_entrp">   -858.73603386 </i>
    <i name="e_0_energy">   -858.73603386 </i>
   </energy>
  </scstep>
  <scstep>
   <time name="dav">    2.35    2.37</time>
   <time name="total">    3.15    3.19</time>
   <energy>
    <i name="e_fr_energy">   -850.19756715 </i>
    <i name="e_wo_entrp">   -850.19756715 </i>
    <i name="e_0_energy">   -850.19756715 </i>
   </energy>
  </scstep>
  <scstep>
   <time name="dav">    2.29    2.31</time>
   <time name="total">    3.09    3.12</time>
   <energy>
    <i name="e_fr_energy">   -845.93182489 </i>
    <i name="e_wo_entrp">   -845.93182454 </i>
    <i name="e_0_energy">   -845.93182471 </i>
   </energy>
  </scstep>
  <scstep>
   <time name="dav">    2.30    2.32</time>
   <time name="total">    3.11    3.14</time>
   <energy>
    <i name="e_fr_energy">   -845.80570991 </i>
    <i name="e_wo_entrp">   -845.80570991 </i>
    <i name="e_0_energy">   -845.80570991 </i>
   </energy>
  </scstep>
  <scstep>
   <time name="dav">    2.38    2.40</time>
   <time name="total">    3.18    3.21</time>
   <energy>
    <i name="e_fr_energy">   -845.64401976 </i>
    <i name="e_wo_entrp">   -845.64401976 </i>
    <i name="e_0_energy">   -845.64401976 </i>
   </energy>
  </scstep>
  <scstep>
   <time name="dav">    2.24    2.26</time>
   <time name="total">    3.06    3.09</time>
   <energy>
    <i name="e_fr_energy">   -845.59165818 </i>
    <i name="e_wo_entrp">   -845.59165818 </i>
    <i name="e_0_energy">   -845.59165818 </i>
   </energy>
  </scstep>
  <scstep>
   <time name="dav">    2.26    2.27</time>
   <time name="total">    3.07    3.10</time>
   <energy>
    <i name="e_fr_energy">   -845.57903819 </i>
    <i name="e_wo_entrp">   -845.57903819 </i>
    <i name="e_0_energy">   -845.57903819 </i>
   </energy>
  </scstep>
  <scstep>
   <time name="dav">    2.23    2.25</time>
   <time name="total">    3.04    3.08</time>
   <energy>
    <i name="e_fr_energy">   -845.58953950 </i>
    <i name="e_wo_entrp">   -845.58953950 </i>
    <i name="e_0_energy">   -845.58953950 </i>
   </energy>
  </scstep>
  <scstep>
   <time name="dav">    2.24    2.25</time>
   <time name="total">    3.05    3.08</time>
   <energy>
    <i name="e_fr_energy">   -845.59939276 </i>
    <i name="e_wo_entrp">   -845.59939276 </i>
    <i name="e_0_energy">   -845.59939276 </i>
   </energy>
  </scstep>
  <scstep>
   <time name="dav">    2.18    2.20</time>
   <time name="total">    2.99    3.02</time>
   <energy>
    <i name="e_fr_energy">   -845.63059611 </i>
    <i name="e_wo_entrp">   -845.63059611 </i>
    <i name="e_0_energy">   -845.63059611 </i>
   </energy>
  </scstep>
  <scstep>
   <time name="dav">    2.19    2.21</time>
   <time name="total">    3.00    3.03</time>
   <energy>
    <i name="e_fr_energy">   -845.64691815 </i>
    <i name="e_wo_entrp">   -845.64691815 </i>
    <i name="e_0_energy">   -845.64691815 </i>
   </energy>
  </scstep>
  <scstep>
   <time name="dav">    2.30    2.32</time>
   <time name="total">    3.12    3.15</time>
   <energy>
    <i name="e_fr_energy">   -845.65319700 </i>
    <i name="e_wo_entrp">   -845.65319700 </i>
    <i name="e_0_energy">   -845.65319700 </i>
   </energy>
  </scstep>
  <scstep>
   <time name="dav">    2.18    2.20</time>
   <time name="total">    3.00    3.03</time>
   <energy>
    <i name="e_fr_energy">   -845.65630110 </i>
    <i name="e_wo_entrp">   -845.65630110 </i>
    <i name="e_0_energy">   -845.65630110 </i>
   </energy>
  </scstep>
  <scstep>
   <time name="dav">    2.32    2.35</time>
   <time name="total">    3.14    3.18</time>
   <energy>
    <i name="e_fr_energy">   -845.65733259 </i>
    <i name="e_wo_entrp">   -845.65733259 </i>
    <i name="e_0_energy">   -845.65733259 </i>
   </energy>
  </scstep>
  <scstep>
   <time name="dav">    2.36    2.39</time>
   <time name="total">    3.18    3.23</time>
   <energy>
    <i name="e_fr_energy">   -845.65774689 </i>
    <i name="e_wo_entrp">   -845.65774689 </i>
    <i name="e_0_energy">   -845.65774689 </i>
   </energy>
  </scstep>
  <scstep>
   <time name="dav">    2.23    2.25</time>
   <time name="total">    3.05    3.08</time>
   <energy>
    <i name="e_fr_energy">   -845.65794872 </i>
    <i name="e_wo_entrp">   -845.65794872 </i>
    <i name="e_0_energy">   -845.65794872 </i>
   </energy>
  </scstep>
  <scstep>
   <time name="dav">    2.18    2.20</time>
   <time name="total">    2.99    3.02</time>
   <energy>
    <i name="e_fr_energy">   -845.65806342 </i>
    <i name="e_wo_entrp">   -845.65806342 </i>
    <i name="e_0_energy">   -845.65806342 </i>
   </energy>
  </scstep>
  <scstep>
   <time name="dav">    2.23    2.25</time>
   <time name="total">    3.05    3.07</time>
   <energy>
    <i name="e_fr_energy">   -845.65813955 </i>
    <i name="e_wo_entrp">   -845.65813955 </i>
    <i name="e_0_energy">   -845.65813955 </i>
   </energy>
  </scstep>
  <scstep>
   <time name="dav">    2.32    2.34</time>
   <time name="total">    3.13    3.17</time>
   <energy>
    <i name="e_fr_energy">   -845.65817756 </i>
    <i name="e_wo_entrp">   -845.65817756 </i>
    <i name="e_0_energy">   -845.65817756 </i>
   </energy>
  </scstep>
  <scstep>
   <time name="dav">    2.21    2.23</time>
   <time name="total">    3.02    3.06</time>
   <energy>
    <i name="e_fr_energy">   -845.65819488 </i>
    <i name="e_wo_entrp">   -845.65819488 </i>
    <i name="e_0_energy">   -845.65819488 </i>
   </energy>
  </scstep>
  <scstep>
   <time name="dav">    2.23    2.25</time>
   <time name="total">    3.04    3.08</time>
   <energy>
    <i name="e_fr_energy">   -845.65821147 </i>
    <i name="e_wo_entrp">   -845.65821147 </i>
    <i name="e_0_energy">   -845.65821147 </i>
   </energy>
  </scstep>
  <scstep>
   <time name="dav">    2.22    2.24</time>
   <time name="total">    3.04    3.07</time>
   <energy>
    <i name="e_fr_energy">   -845.65821478 </i>
    <i name="e_wo_entrp">   -845.65821478 </i>
    <i name="e_0_energy">   -845.65821478 </i>
   </energy>
  </scstep>
  <scstep>
   <time name="dav">    1.96    1.98</time>
   <time name="total">    2.78    2.81</time>
   <energy>
    <i name="e_fr_energy">   -845.65821608 </i>
    <i name="e_wo_entrp">   -845.65821608 </i>
    <i name="e_0_energy">   -845.65821608 </i>
   </energy>
  </scstep>
  <scstep>
   <time name="dav">    1.77    1.78</time>
   <time name="total">    2.58    2.61</time>
   <energy>
    <i name="e_fr_energy">   -845.65821638 </i>
    <i name="e_wo_entrp">   -845.65821638 </i>
    <i name="e_0_energy">   -845.65821638 </i>
   </energy>
  </scstep>
  <scstep>
   <time name="dav">    1.69    1.71</time>
   <time name="total">    2.51    2.55</time>
   <energy>
    <i name="e_fr_energy">   -845.65821648 </i>
    <i name="e_wo_entrp">   -845.65821648 </i>
    <i name="e_0_energy">   -845.65821648 </i>
   </energy>
  </scstep>
  <scstep>
   <time name="dav">    1.68    1.70</time>
   <time name="total">    2.51    2.54</time>
   <energy>
    <i name="e_fr_energy">   -845.65821654 </i>
    <i name="e_wo_entrp">   -845.65821654 </i>
    <i name="e_0_energy">   -845.65821654 </i>
   </energy>
  </scstep>
  <scstep>
   <time name="dav">    1.72    1.73</time>
   <time name="total">    2.54    2.57</time>
   <energy>
    <i name="e_fr_energy">   -845.65821656 </i>
    <i name="e_wo_entrp">   -845.65821656 </i>
    <i name="e_0_energy">   -845.65821656 </i>
   </energy>
  </scstep>
  <scstep>
   <time name="dav">    1.79    1.81</time>
   <time name="total">    2.16    2.19</time>
   <energy>
    <i name="alphaZ">    156.50993408 </i>
    <i name="ewald">  58207.55132941 </i>
    <i name="hartreedc"> -72314.80527320 </i>
    <i name="XCdc">   1369.74187096 </i>
    <i name="pawpsdc">  44024.59270987 </i>
    <i name="pawaedc"> -44059.93759872 </i>
    <i name="eentropy">     -0.00000000 </i>
    <i name="bandstr">  -4490.24999037 </i>
    <i name="atom">  16260.93880140 </i>
    <i name="e_fr_energy">   -845.65821657 </i>
    <i name="e_wo_entrp">   -845.65821657 </i>
    <i name="e_0_energy">   -845.65821657 </i>
   </energy>
  </scstep>
  <structure>
   <crystal>
    <varray name="basis" >
     <v>      17.59966831       0.00000000       0.00000000 </v>
     <v>      -8.79983416      15.24175986       0.00000000 </v>
     <v>       0.00000000       0.00000000      19.92151445 </v>
    </varray>
    <i name="volume">   5343.94461817 </i>
    <varray name="rec_basis" >
     <v>       0.05681925       0.03280461       0.00000000 </v>
     <v>       0.00000000       0.06560922       0.00000000 </v>
     <v>       0.00000000       0.00000000       0.05019699 </v>
    </varray>
   </crystal>
   <varray name="positions" >
    <v>       0.99943010       0.00005992       0.50000000 </v>
    <v>       0.14164706       0.99871895       0.50000000 </v>
    <v>       0.28492260       0.99841663       0.50000000 </v>
    <v>       0.42850047       0.99871895       0.50000000 </v>
    <v>       0.57205839       0.00005992       0.50000000 </v>
    <v>       0.71530655       0.00214292       0.50000000 </v>
    <v>       0.85826494       0.00214292       0.50000000 </v>
    <v>       0.00080792       0.14408264       0.50000000 </v>
    <v>       0.14259355       0.14244783       0.50000000 </v>
    <v>       0.28470221       0.14112972       0.50000000 </v>
    <v>       0.42785608       0.14112972       0.50000000 </v>
    <v>       0.57128286       0.14244783       0.50000000 </v>
    <v>       0.71470329       0.14408264       0.50000000 </v>
    <v>       0.85805263       0.14467669       0.50000000 </v>
    <v>       0.00095476       0.28713011       0.50000000 </v>
    <v>       0.14372552       0.28645370       0.50000000 </v>
    <v>       0.28540977       0.28469374       0.50000000 </v>
    <v>       0.42724431       0.28306005       0.50000000 </v>
    <v>       0.57071254       0.28469374       0.50000000 </v>
    <v>       0.71415674       0.28645370       0.50000000 </v>
    <v>       0.85760392       0.28713011       0.50000000 </v>
    <v>       0.00054479       0.42966101       0.50000000 </v>
    <v>       0.14422690       0.42957551       0.50000000 </v>
    <v>       0.28730213       0.42918005       0.50000000 </v>
    <v>       0.42797654       0.42569726       0.50000000 </v>
    <v>       0.56914930       0.42569726       0.50000000 </v>
    <v>       0.71330650       0.42918005       0.50000000 </v>
    <v>       0.85677719       0.42957551       0.50000000 </v>
    <v>       0.99928255       0.57181462       0.50000000 </v>
    <v>       0.14396064       0.57181462       0.50000000 </v>
    <v>       0.28862787       0.57181625       0.50000000 </v>
    <v>       0.43313209       0.57215564       0.50000000 </v>
    <v>       0.71045212       0.57215564       0.50000000 </v>
    <v>       0.85461695       0.57181625       0.50000000 </v>
    <v>       0.99707234       0.71370518       0.50000000 </v>
    <v>       0.14255519       0.71368182       0.50000000 </v>
    <v>       0.28806142       0.71370518       0.50000000 </v>
    <v>       0.43464191       0.71382540       0.50000000 </v>
    <v>       0.58510826       0.71683756       0.50000000 </v>
    <v>       0.70258968       0.71626937       0.50000000 </v>
    <v>       0.85061206       0.71382540       0.50000000 </v>
    <v>       0.99777175       0.85613493       0.50000000 </v>
    <v>       0.14160898       0.85591288       0.50000000 </v>
    <v>       0.28573247       0.85591288       0.50000000 </v>
    <v>       0.42979175       0.85613493       0.50000000 </v>
    <v>       0.57342541       0.85758690       0.50000000 </v>
    <v>       0.71640633       0.86138410       0.50000000 </v>
    <v>       0.85559006       0.85758690       0.50000000 </v>
    <v>       0.04754270       0.09547788       0.50000000 </v>
    <v>       0.18957833       0.09405657       0.50000000 </v>
    <v>       0.33254182       0.09365506       0.50000000 </v>
    <v>       0.47590681       0.09405657       0.50000000 </v>
    <v>       0.61936376       0.09547788       0.50000000 </v>
    <v>       0.76280004       0.09719274       0.50000000 </v>
    <v>       0.90582126       0.09719274       0.50000000 </v>
    <v>       0.04854983       0.23934281       0.50000000 </v>
    <v>       0.19048138       0.23782962       0.50000000 </v>
    <v>       0.33234878       0.23634667       0.50000000 </v>
    <v>       0.47542646       0.23634667       0.50000000 </v>
    <v>       0.61877681       0.23782962       0.50000000 </v>
    <v>       0.76222155       0.23934281       0.50000000 </v>
    <v>       0.90562797       0.23982737       0.50000000 </v>
    <v>       0.04871288       0.38232824       0.50000000 </v>
    <v>       0.19188940       0.38184213       0.50000000 </v>
    <v>       0.33352206       0.38013969       0.50000000 </v>
    <v>       0.47472270       0.37801683       0.50000000 </v>
    <v>       0.61804620       0.38013969       0.50000000 </v>
    <v>       0.76138130       0.38184213       0.50000000 </v>
    <v>       0.90504393       0.38232824       0.50000000 </v>
    <v>       0.04810654       0.52478452       0.50000000 </v>
    <v>       0.19263929       0.52476864       0.50000000 </v>
    <v>       0.33696521       0.52455433       0.50000000 </v>
    <v>       0.47833704       0.52146721       0.50000000 </v>
    <v>       0.61455874       0.52146721       0.50000000 </v>
    <v>       0.75901769       0.52455433       0.50000000 </v>
    <v>       0.90355792       0.52476864       0.50000000 </v>
    <v>       0.04642473       0.66685228       0.50000000 </v>
    <v>       0.19185612       0.66685228       0.50000000 </v>
    <v>       0.33777931       0.66688794       0.50000000 </v>
    <v>       0.48615700       0.66710760       0.50000000 </v>
    <v>       0.75237918       0.66710760       0.50000000 </v>
    <v>       0.90053720       0.66688794       0.50000000 </v>
    <v>       0.04582562       0.80879365       0.50000000 </v>
    <v>       0.19009580       0.80876303       0.50000000 </v>
    <v>       0.33439660       0.80879365       0.50000000 </v>
    <v>       0.47844872       0.80897069       0.50000000 </v>
    <v>       0.62209487       0.81129474       0.50000000 </v>
    <v>       0.76062845       0.81129474       0.50000000 </v>
    <v>       0.90195054       0.80897069       0.50000000 </v>
    <v>       0.04629157       0.95154386       0.50000000 </v>
    <v>       0.18948291       0.95113037       0.50000000 </v>
    <v>       0.33307603       0.95113037       0.50000000 </v>
    <v>       0.47668087       0.95154386       0.50000000 </v>
    <v>       0.62015751       0.95313740       0.50000000 </v>
    <v>       0.76355772       0.95568687       0.50000000 </v>
    <v>       0.90440847       0.95313740       0.50000000 </v>
    <v>       0.56830873       0.56518888       0.50000000 </v>
   </varray>
  </structure>
  <varray name="forces" >
   <v>      -0.03749071      -0.02552885       0.00000000 </v>
   <v>      -0.02154062      -0.00907079       0.00000000 </v>
   <v>      -0.00071546      -0.01201615       0.00000000 </v>
   <v>       0.01945542      -0.00816878       0.00000000 </v>
   <v>       0.03405933      -0.02354793      -0.00000000 </v>
   <v>      -0.03342935      -0.04379085       0.00000000 </v>
   <v>       0.03983208      -0.04773775       0.00000000 </v>
   <v>      -0.00409373      -0.02563780       0.00000000 </v>
   <v>      -0.02607703      -0.02436864       0.00000000 </v>
   <v>      -0.00769027      -0.03204680       0.00000000 </v>
   <v>       0.00667629      -0.03168294       0.00000000 </v>
   <v>       0.02518410      -0.02348137      -0.00000000 </v>
   <v>       0.00460238      -0.02438011       0.00000000 </v>
   <v>       0.00140636      -0.03918503       0.00000000 </v>
   <v>      -0.00771590      -0.02820952       0.00000000 </v>
   <v>       0.00641167      -0.04334253       0.00000000 </v>
   <v>      -0.02983690      -0.00099645       0.00000000 </v>
   <v>      -0.00016768      -0.09089413       0.00000000 </v>
   <v>       0.02962157      -0.00021005      -0.00000000 </v>
   <v>      -0.00654129      -0.04269253       0.00000000 </v>
   <v>       0.00837119      -0.02791693       0.00000000 </v>
   <v>       0.00011135       0.00766469       0.00000000 </v>
   <v>      -0.02451764      -0.00058419       0.00000000 </v>
   <v>       0.05934321      -0.13763506       0.00000000 </v>
   <v>      -0.10999866      -0.19715906       0.00000000 </v>
   <v>       0.11234715      -0.19535937       0.00000000 </v>
   <v>      -0.05950332      -0.13715624       0.00000000 </v>
   <v>       0.02441745      -0.00045212       0.00000000 </v>
   <v>       0.01637483       0.02861448      -0.00000000 </v>
   <v>      -0.01636375       0.02839207       0.00000000 </v>
   <v>      -0.08381871       0.12779343       0.00000000 </v>
   <v>       0.07108578       0.40590276       0.00000000 </v>
   <v>      -0.05585577       0.39540397      -0.00000000 </v>
   <v>       0.08367614       0.12737336       0.00000000 </v>
   <v>      -0.00934440       0.02137552       0.00000000 </v>
   <v>      -0.00028446       0.02702391       0.00000000 </v>
   <v>       0.00906835       0.01929762       0.00000000 </v>
   <v>       0.08157685       0.02081000       0.00000000 </v>
   <v>       1.43142485       0.96282565       0.00000000 </v>
   <v>      -1.38146556       1.22935196       0.00000000 </v>
   <v>      -0.08869937       0.03933206       0.00000000 </v>
   <v>      -0.04670183      -0.00836211       0.00000000 </v>
   <v>      -0.01318533      -0.00450732      -0.00000000 </v>
   <v>       0.01188553      -0.00436893       0.00000000 </v>
   <v>       0.04285516      -0.00639421       0.00000000 </v>
   <v>       0.11799952       0.06286309       0.00000000 </v>
   <v>       0.03729311      -0.23684868       0.00000000 </v>
   <v>      -0.14722314       0.03712033       0.00000000 </v>
   <v>       0.02515229       0.03128911      -0.00000000 </v>
   <v>       0.01005670       0.02258193      -0.00000000 </v>
   <v>       0.00049491       0.02637085      -0.00000000 </v>
   <v>      -0.00910053       0.02174817      -0.00000000 </v>
   <v>      -0.02455677       0.02919653      -0.00000000 </v>
   <v>      -0.01253637       0.02269345      -0.00000000 </v>
   <v>       0.01039288       0.02464156       0.00000000 </v>
   <v>       0.01523338       0.03418663       0.00000000 </v>
   <v>      -0.00966247       0.00223808      -0.00000000 </v>
   <v>       0.01528450       0.03409404       0.00000000 </v>
   <v>      -0.01496903       0.03370666       0.00000000 </v>
   <v>       0.01001453       0.00123550       0.00000000 </v>
   <v>      -0.01549052       0.03324425      -0.00000000 </v>
   <v>      -0.00041412       0.02920115       0.00000000 </v>
   <v>       0.01060591       0.02531483      -0.00000000 </v>
   <v>       0.04669708       0.05884360       0.00000000 </v>
   <v>      -0.02365519      -0.20162704       0.00000000 </v>
   <v>      -0.00037156       0.10695434       0.00000000 </v>
   <v>       0.02386540      -0.20332280       0.00000000 </v>
   <v>      -0.04645042       0.05805573      -0.00000000 </v>
   <v>      -0.01071572       0.02510720      -0.00000000 </v>
   <v>       0.00004074       0.00877867      -0.00000000 </v>
   <v>       0.02470257      -0.00736537       0.00000000 </v>
   <v>       0.18712536       0.11476446       0.00000000 </v>
   <v>       1.01870738      -1.56055954       0.00000000 </v>
   <v>      -1.02017859      -1.57479151       0.00000000 </v>
   <v>      -0.18728459       0.11197829       0.00000000 </v>
   <v>      -0.02467872      -0.00742638       0.00000000 </v>
   <v>       0.01034343      -0.03271485       0.00000000 </v>
   <v>      -0.01003296      -0.03219084      -0.00000000 </v>
   <v>      -0.06370051      -0.06275040       0.00000000 </v>
   <v>      -0.30566725       0.06871269       0.00000000 </v>
   <v>       0.27627807       0.01469189      -0.00000000 </v>
   <v>       0.06053982      -0.06526670       0.00000000 </v>
   <v>       0.03650759      -0.01222489       0.00000000 </v>
   <v>       0.00067945      -0.01064733      -0.00000000 </v>
   <v>      -0.03417650      -0.01128155       0.00000000 </v>
   <v>      -0.07344446      -0.00552451      -0.00000000 </v>
   <v>      -0.94077344       0.42694138      -0.00000000 </v>
   <v>       0.87505781       0.25525979       0.00000000 </v>
   <v>       0.08407377      -0.01081108      -0.00000000 </v>
   <v>       0.03071973       0.01746254       0.00000000 </v>
   <v>       0.01015941      -0.00363290       0.00000000 </v>
   <v>      -0.00863372      -0.00375404       0.00000000 </v>
   <v>      -0.02816783       0.01618045       0.00000000 </v>
   <v>      -0.10690823       0.10947104       0.00000000 </v>
   <v>      -0.00675623       0.00649090       0.00000000 </v>
   <v>       0.10726224       0.11937300      -0.00000000 </v>
   <v>       0.02551195      -0.09232866      -0.00000000 </v>
  </varray>
  <varray name="stress" >
   <v>     -10.57106769      -0.04115926       0.00000000 </v>
   <v>      -0.04115926       3.09880692       0.00000000 </v>
   <v>       0.00000000       0.00000000      -0.42561214 </v>
  </varray>
  <energy>
   <i name="e_fr_energy">   -845.65821657 </i>
   <i name="e_wo_entrp">   -845.65821657 </i>
   <i name="e_0_energy">     -0.00000000 </i>
  </energy>
  <time name="totalsc">  103.90  105.23</time>
  <eigenvalues>
   <array>
    <dimension dim="1">band</dimension>
    <dimension dim="2">kpoint</dimension>
    <dimension dim="3">spin</dimension>
    <field>eigene</field>
    <field>occ</field>
    <set>
     <set comment="spin 1">
      <set comment="kpoint 1">
       <r>  -22.5343    1.0000 </r>
       <r>  -22.0205    1.0000 </r>
       <r>  -21.7725    1.0000 </r>
       <r>  -21.7443    1.0000 </r>
       <r>  -21.6968    1.0000 </r>
       <r>  -21.6554    1.0000 </r>
       <r>  -21.6210    1.0000 </r>
       <r>  -21.2382    1.0000 </r>
       <r>  -21.0683    1.0000 </r>
       <r>  -21.0052    1.0000 </r>
       <r>  -20.9699    1.0000 </r>
       <r>  -20.9268    1.0000 </r>
       <r>  -20.8775    1.0000 </r>
       <r>  -20.7458    1.0000 </r>
       <r>  -20.7026    1.0000 </r>
       <r>  -20.6651    1.0000 </r>
       <r>  -20.5958    1.0000 </r>
       <r>  -20.5699    1.0000 </r>
       <r>  -20.4323    1.0000 </r>
       <r>  -19.9782    1.0000 </r>
       <r>  -19.9260    1.0000 </r>
       <r>  -19.8036    1.0000 </r>
       <r>  -19.7634    1.0000 </r>
       <r>  -19.7367    1.0000 </r>
       <r>  -19.7362    1.0000 </r>
       <r>  -19.7076    1.0000 </r>
       <r>  -19.6993    1.0000 </r>
       <r>  -19.6469    1.0000 </r>
       <r>  -19.6419    1.0000 </r>
       <r>  -19.6290    1.0000 </r>
       <r>  -19.4947    1.0000 </r>
       <r>  -19.4089    1.0000 </r>
       <r>  -19.3647    1.0000 </r>
       <r>  -19.3574    1.0000 </r>
       <r>  -19.2921    1.0000 </r>
       <r>  -19.2430    1.0000 </r>
       <r>  -19.1072    1.0000 </r>
       <r>  -18.9990    1.0000 </r>
       <r>  -18.9317    1.0000 </r>
       <r>  -18.8762    1.0000 </r>
       <r>  -18.8541    1.0000 </r>
       <r>  -18.8377    1.0000 </r>
       <r>  -18.7675    1.0000 </r>
       <r>  -18.7516    1.0000 </r>
       <r>  -18.7287    1.0000 </r>
       <r>  -18.7143    1.0000 </r>
       <r>  -18.6971    1.0000 </r>
       <r>  -18.4584    1.0000 </r>
       <r>  -14.1344    1.0000 </r>
       <r>  -13.1802    1.0000 </r>
       <r>  -13.1566    1.0000 </r>
       <r>  -13.1097    1.0000 </r>
       <r>  -13.1036    1.0000 </r>
       <r>  -13.0802    1.0000 </r>
       <r>  -13.0172    1.0000 </r>
       <r>  -12.9592    1.0000 </r>
       <r>  -12.9528    1.0000 </r>
       <r>  -12.9361    1.0000 </r>
       <r>  -12.8076    1.0000 </r>
       <r>  -12.7696    1.0000 </r>
       <r>  -12.6022    1.0000 </r>
       <r>  -12.5034    1.0000 </r>
       <r>  -12.4866    1.0000 </r>
       <r>  -12.3798    1.0000 </r>
       <r>  -12.3084    1.0000 </r>
       <r>  -12.2988    1.0000 </r>
       <r>  -12.1758    1.0000 </r>
       <r>  -11.9014    1.0000 </r>
       <r>  -11.8848    1.0000 </r>
       <r>  -11.7679    1.0000 </r>
       <r>  -11.7645    1.0000 </r>
       <r>  -11.7520    1.0000 </r>
       <r>  -11.7424    1.0000 </r>
       <r>  -11.6976    1.0000 </r>
       <r>  -11.6589    1.0000 </r>
       <r>  -11.6362    1.0000 </r>
       <r>  -11.5419    1.0000 </r>
       <r>  -11.4190    1.0000 </r>
       <r>  -11.1999    1.0000 </r>
       <r>  -11.1257    1.0000 </r>
       <r>  -11.0853    1.0000 </r>
       <r>  -11.0599    1.0000 </r>
       <r>  -10.9676    1.0000 </r>
       <r>  -10.9123    1.0000 </r>
       <r>  -10.6835    1.0000 </r>
       <r>  -10.4620    1.0000 </r>
       <r>  -10.4320    1.0000 </r>
       <r>  -10.3517    1.0000 </r>
       <r>  -10.2552    1.0000 </r>
       <r>  -10.2066    1.0000 </r>
       <r>   -9.8883    1.0000 </r>
       <r>   -9.7677    1.0000 </r>
       <r>   -9.7658    1.0000 </r>
       <r>   -9.7234    1.0000 </r>
       <r>   -9.6773    1.0000 </r>
       <r>   -9.5857    1.0000 </r>
       <r>   -9.5430    1.0000 </r>
       <r>   -9.4984    1.0000 </r>
       <r>   -9.4635    1.0000 </r>
       <r>   -9.3504    1.0000 </r>
       <r>   -9.3460    1.0000 </r>
       <r>   -9.2883    1.0000 </r>
       <r>   -9.2619    1.0000 </r>
       <r>   -9.2561    1.0000 </r>
       <r>   -9.2515    1.0000 </r>
       <r>   -9.2390    1.0000 </r>
       <r>   -9.2243    1.0000 </r>
       <r>   -9.2228    1.0000 </r>
       <r>   -9.2085    1.0000 </r>
       <r>   -9.2042    1.0000 </r>
       <r>   -9.1994    1.0000 </r>
       <r>   -9.1991    1.0000 </r>
       <r>   -9.1562    1.0000 </r>
       <r>   -9.1352    1.0000 </r>
       <r>   -9.1136    1.0000 </r>
       <r>   -9.1123    1.0000 </r>
       <r>   -9.1032    1.0000 </r>
       <r>   -9.0484    1.0000 </r>
       <r>   -8.9961    1.0000 </r>
       <r>   -8.8439    1.0000 </r>
       <r>   -8.7973    1.0000 </r>
       <r>   -8.6540    1.0000 </r>
       <r>   -8.5087    1.0000 </r>
       <r>   -8.4816    1.0000 </r>
       <r>   -8.4445    1.0000 </r>
       <r>   -8.3277    1.0000 </r>
       <r>   -8.2227    1.0000 </r>
       <r>   -8.2031    1.0000 </r>
       <r>   -8.1986    1.0000 </r>
       <r>   -8.1715    1.0000 </r>
       <r>   -8.1509    1.0000 </r>
       <r>   -8.1231    1.0000 </r>
       <r>   -8.0395    1.0000 </r>
       <r>   -7.9702    1.0000 </r>
       <r>   -7.9511    1.0000 </r>
       <r>   -7.8727    1.0000 </r>
       <r>   -7.8488    1.0000 </r>
       <r>   -7.8468    1.0000 </r>
       <r>   -7.8025    1.0000 </r>
       <r>   -7.8007    1.0000 </r>
       <r>   -7.7989    1.0000 </r>
       <r>   -7.7376    1.0000 </r>
       <r>   -7.7353    1.0000 </r>
       <r>   -7.7113    1.0000 </r>
       <r>   -7.6790    1.0000 </r>
       <r>   -7.6759    1.0000 </r>
       <r>   -7.6661    1.0000 </r>
       <r>   -7.6392    1.0000 </r>
       <r>   -7.6361    1.0000 </r>
       <r>   -7.4443    1.0000 </r>
       <r>   -7.4381    1.0000 </r>
       <r>   -7.4332    1.0000 </r>
       <r>   -7.3856    1.0000 </r>
       <r>   -7.3630    1.0000 </r>
       <r>   -7.2776    1.0000 </r>
       <r>   -6.8321    1.0000 </r>
       <r>   -6.7600    1.0000 </r>
       <r>   -6.6219    1.0000 </r>
       <r>   -6.6063    1.0000 </r>
       <r>   -6.5414    1.0000 </r>
       <r>   -6.5402    1.0000 </r>
       <r>   -6.5055    1.0000 </r>
       <r>   -6.4883    1.0000 </r>
       <r>   -6.4598    1.0000 </r>
       <r>   -6.4566    1.0000 </r>
       <r>   -6.4405    1.0000 </r>
       <r>   -6.4400    1.0000 </r>
       <r>   -6.4110    1.0000 </r>
       <r>   -6.4054    1.0000 </r>
       <r>   -6.3619    1.0000 </r>
       <r>   -6.3472    1.0000 </r>
       <r>   -6.3197    1.0000 </r>
       <r>   -6.1117    1.0000 </r>
       <r>   -5.9717    1.0000 </r>
       <r>   -5.9268    1.0000 </r>
       <r>   -5.8861    1.0000 </r>
       <r>   -5.8801    1.0000 </r>
       <r>   -5.8630    1.0000 </r>
       <r>   -5.7852    1.0000 </r>
       <r>   -5.7800    1.0000 </r>
       <r>   -5.5276    1.0000 </r>
       <r>   -5.2197    1.0000 </r>
       <r>   -5.1963    1.0000 </r>
       <r>   -5.1633    1.0000 </r>
       <r>   -5.1412    1.0000 </r>
       <r>   -5.1332    1.0000 </r>
       <r>   -5.1058    1.0000 </r>
       <r>   -5.0010    1.0000 </r>
       <r>   -4.9449    1.0000 </r>
       <r>   -4.9179    1.0000 </r>
       <r>   -4.9092    1.0000 </r>
       <r>   -4.8995    1.0000 </r>
       <r>   -4.7414    1.0000 </r>
       <r>   -1.3054    1.0000 </r>
       <r>   -1.1888    0.0000 </r>
       <r>    0.0647    0.0000 </r>
       <r>    0.2049    0.0000 </r>
       <r>    0.2410    0.0000 </r>
       <r>    0.2591    0.0000 </r>
       <r>    0.2613    0.0000 </r>
       <r>    0.3036    0.0000 </r>
       <r>    0.3043    0.0000 </r>
       <r>    0.3781    0.0000 </r>
       <r>    0.3933    0.0000 </r>
       <r>    0.4343    0.0000 </r>
       <r>    0.4789    0.0000 </r>
       <r>    0.5259    0.0000 </r>
       <r>    0.6078    0.0000 </r>
       <r>    0.7472    0.0000 </r>
       <r>    0.7481    0.0000 </r>
       <r>    0.7779    0.0000 </r>
       <r>    0.8069    0.0000 </r>
       <r>    0.8125    0.0000 </r>
       <r>    0.8263    0.0000 </r>
       <r>    0.8381    0.0000 </r>
       <r>    0.8575    0.0000 </r>
       <r>    0.8701    0.0000 </r>
       <r>    0.9817    0.0000 </r>
       <r>    1.0199    0.0000 </r>
       <r>    1.0603    0.0000 </r>
       <r>    1.1189    0.0000 </r>
       <r>    1.4952    0.0000 </r>
       <r>    1.6738    0.0000 </r>
       <r>    1.6975    0.0000 </r>
       <r>    1.7064    0.0000 </r>
       <r>    1.7236    0.0000 </r>
       <r>    1.7392    0.0000 </r>
       <r>    1.7435    0.0000 </r>
       <r>    1.8061    0.0000 </r>
       <r>    1.8087    0.0000 </r>
       <r>    1.8465    0.0000 </r>
       <r>    1.8468    0.0000 </r>
       <r>    1.8783    0.0000 </r>
       <r>    1.8807    0.0000 </r>
       <r>    1.9051    0.0000 </r>
       <r>    1.9070    0.0000 </r>
       <r>    1.9267    0.0000 </r>
       <r>    1.9799    0.0000 </r>
       <r>    2.0308    0.0000 </r>
       <r>    2.1056    0.0000 </r>
       <r>    2.1074    0.0000 </r>
       <r>    2.1287    0.0000 </r>
       <r>    2.1348    0.0000 </r>
       <r>    2.1403    0.0000 </r>
      </set>
     </set>
    </set>
   </array>
  </eigenvalues>
  <separator name="orbital magnetization" >
   <v name="MAGDIPOLOUT">      0.00000000      0.00000000      0.00000000</v>
  </separator>
  <dos>
   <i name="efermi">     -1.25138416 </i>
   <total>
    <array>
     <dimension dim="1">gridpoints</dimension>
     <dimension dim="2">spin</dimension>
     <field>energy</field>
     <field>total</field>
     <field>integrated</field>
     <set>
      <set comment="spin 1">
       <r>   -23.7680     0.0000     0.0000 </r>
       <r>   -23.6775     0.0000     0.0000 </r>
       <r>   -23.5870     0.0000     0.0000 </r>
       <r>   -23.4966     0.0000     0.0000 </r>
       <r>   -23.4061     0.0000     0.0000 </r>
       <r>   -23.3156     0.0000     0.0000 </r>
       <r>   -23.2251     0.0000     0.0000 </r>
       <r>   -23.1347     0.0000     0.0000 </r>
       <r>   -23.0442     0.0000     0.0000 </r>
       <r>   -22.9537     0.0000     0.0000 </r>
       <r>   -22.8632     0.0000     0.0000 </r>
       <r>   -22.7728     0.0000     0.0000 </r>
       <r>   -22.6823     0.0000     0.0000 </r>
       <r>   -22.5918     0.0000     0.0000 </r>
       <r>   -22.5014    22.1059     2.0000 </r>
       <r>   -22.4109     0.0000     2.0000 </r>
       <r>   -22.3204     0.0000     2.0000 </r>
       <r>   -22.2299     0.0000     2.0000 </r>
       <r>   -22.1395     0.0000     2.0000 </r>
       <r>   -22.0490     0.0006     2.0001 </r>
       <r>   -21.9585    22.1053     4.0000 </r>
       <r>   -21.8680     0.0000     4.0000 </r>
       <r>   -21.7776     5.2187     4.4722 </r>
       <r>   -21.6871    42.3294     9.8297 </r>
       <r>   -21.5966    44.2054    13.9994 </r>
       <r>   -21.5061     0.0000    14.0000 </r>
       <r>   -21.4157     0.0000    14.0000 </r>
       <r>   -21.3252     0.0000    14.0000 </r>
       <r>   -21.2347    15.2664    15.3812 </r>
       <r>   -21.1443     0.0000    16.0000 </r>
       <r>   -21.0538    21.6629    17.9599 </r>
       <r>   -20.9633    40.3619    21.6517 </r>
       <r>   -20.8728    38.6145    25.4936 </r>
       <r>   -20.7824     0.0000    26.0000 </r>
       <r>   -20.6919    42.7635    29.8690 </r>
       <r>   -20.6014    26.7882    32.4238 </r>
       <r>   -20.5109    22.1058    36.0000 </r>
       <r>   -20.4205    21.0674    37.9060 </r>
       <r>   -20.3300     0.0000    38.0000 </r>
       <r>   -20.2395     0.0000    38.0000 </r>
       <r>   -20.1490     0.0000    38.0000 </r>
       <r>   -20.0586     0.0000    38.0000 </r>
       <r>   -19.9681    20.4191    39.8474 </r>
       <r>   -19.8776    22.1059    42.0000 </r>
       <r>   -19.7871    21.8938    43.9808 </r>
       <r>   -19.6967   101.3025    53.1660 </r>
       <r>   -19.6062    66.3037    59.9987 </r>
       <r>   -19.5157     0.0319    60.0029 </r>
       <r>   -19.4253    22.3005    62.0205 </r>
       <r>   -19.3348    66.0758    67.9986 </r>
       <r>   -19.2443    31.4900    70.8490 </r>
       <r>   -19.1538     0.0000    72.0000 </r>
       <r>   -19.0634    22.1059    74.0000 </r>
       <r>   -18.9729    22.1034    75.9998 </r>
       <r>   -18.8824    26.2786    78.3775 </r>
       <r>   -18.7919    44.2171    84.0005 </r>
       <r>   -18.7015    93.5446    92.4638 </r>
       <r>   -18.6110     0.0000    94.0000 </r>
       <r>   -18.5205     0.0000    94.0000 </r>
       <r>   -18.4300    22.1052    95.9999 </r>
       <r>   -18.3396     0.0000    96.0000 </r>
       <r>   -18.2491     0.0000    96.0000 </r>
       <r>   -18.1586     0.0000    96.0000 </r>
       <r>   -18.0682     0.0000    96.0000 </r>
       <r>   -17.9777     0.0000    96.0000 </r>
       <r>   -17.8872     0.0000    96.0000 </r>
       <r>   -17.7967     0.0000    96.0000 </r>
       <r>   -17.7063     0.0000    96.0000 </r>
       <r>   -17.6158     0.0000    96.0000 </r>
       <r>   -17.5253     0.0000    96.0000 </r>
       <r>   -17.4348     0.0000    96.0000 </r>
       <r>   -17.3444     0.0000    96.0000 </r>
       <r>   -17.2539     0.0000    96.0000 </r>
       <r>   -17.1634     0.0000    96.0000 </r>
       <r>   -17.0729     0.0000    96.0000 </r>
       <r>   -16.9825     0.0000    96.0000 </r>
       <r>   -16.8920     0.0000    96.0000 </r>
       <r>   -16.8015     0.0000    96.0000 </r>
       <r>   -16.7110     0.0000    96.0000 </r>
       <r>   -16.6206     0.0000    96.0000 </r>
       <r>   -16.5301     0.0000    96.0000 </r>
       <r>   -16.4396     0.0000    96.0000 </r>
       <r>   -16.3492     0.0000    96.0000 </r>
       <r>   -16.2587     0.0000    96.0000 </r>
       <r>   -16.1682     0.0000    96.0000 </r>
       <r>   -16.0777     0.0000    96.0000 </r>
       <r>   -15.9873     0.0000    96.0000 </r>
       <r>   -15.8968     0.0000    96.0000 </r>
       <r>   -15.8063     0.0000    96.0000 </r>
       <r>   -15.7158     0.0000    96.0000 </r>
       <r>   -15.6254     0.0000    96.0000 </r>
       <r>   -15.5349     0.0000    96.0000 </r>
       <r>   -15.4444     0.0000    96.0000 </r>
       <r>   -15.3539     0.0000    96.0000 </r>
       <r>   -15.2635     0.0000    96.0000 </r>
       <r>   -15.1730     0.0000    96.0000 </r>
       <r>   -15.0825     0.0000    96.0000 </r>
       <r>   -14.9921     0.0000    96.0000 </r>
       <r>   -14.9016     0.0000    96.0000 </r>
       <r>   -14.8111     0.0000    96.0000 </r>
       <r>   -14.7206     0.0000    96.0000 </r>
       <r>   -14.6302     0.0000    96.0000 </r>
       <r>   -14.5397     0.0000    96.0000 </r>
       <r>   -14.4492     0.0000    96.0000 </r>
       <r>   -14.3587     0.0000    96.0000 </r>
       <r>   -14.2683     0.0000    96.0000 </r>
       <r>   -14.1778     0.0000    96.0000 </r>
       <r>   -14.0873    22.1059    98.0000 </r>
       <r>   -13.9968     0.0000    98.0000 </r>
       <r>   -13.9064     0.0000    98.0000 </r>
       <r>   -13.8159     0.0000    98.0000 </r>
       <r>   -13.7254     0.0000    98.0000 </r>
       <r>   -13.6349     0.0000    98.0000 </r>
       <r>   -13.5445     0.0000    98.0000 </r>
       <r>   -13.4540     0.0000    98.0000 </r>
       <r>   -13.3635     0.0000    98.0000 </r>
       <r>   -13.2731     0.0000    98.0000 </r>
       <r>   -13.1826     8.1787    98.7400 </r>
       <r>   -13.0921    66.0315   105.9743 </r>
       <r>   -13.0016    42.8984   109.9726 </r>
       <r>   -12.9112    66.3132   115.9996 </r>
       <r>   -12.8207     0.7069   116.0640 </r>
       <r>   -12.7302    43.5049   120.0000 </r>
       <r>   -12.6397     0.0000   120.0000 </r>
       <r>   -12.5493    22.1059   122.0000 </r>
       <r>   -12.4588    44.2109   125.9999 </r>
       <r>   -12.3683    20.9671   127.8970 </r>
       <r>   -12.2778    44.1781   131.9969 </r>
       <r>   -12.1874     1.1111   132.1005 </r>
       <r>   -12.0969    20.9948   134.0000 </r>
       <r>   -12.0064     0.0000   134.0000 </r>
       <r>   -11.9160     0.4334   134.0392 </r>
       <r>   -11.8255    43.7784   138.0000 </r>
       <r>   -11.7350    84.9682   145.6874 </r>
       <r>   -11.6445    46.3973   150.1977 </r>
       <r>   -11.5541     0.9475   152.0857 </r>
       <r>   -11.4636    21.1584   154.0000 </r>
       <r>   -11.3731    22.1059   156.0000 </r>
       <r>   -11.2826     0.0000   156.0000 </r>
       <r>   -11.1922    19.1081   157.7288 </r>
       <r>   -11.1017    22.3279   160.0201 </r>
       <r>   -11.0112    43.9820   164.0000 </r>
       <r>   -10.9207    24.7003   166.2347 </r>
       <r>   -10.8303     0.0000   168.0000 </r>
       <r>   -10.7398     0.0000   168.0000 </r>
       <r>   -10.6493    22.1059   170.0000 </r>
       <r>   -10.5588     0.0000   170.0000 </r>
       <r>   -10.4684     4.0800   170.3691 </r>
       <r>   -10.3779    22.1083   174.0002 </r>
       <r>   -10.2874    22.1036   176.0000 </r>
       <r>   -10.1970    42.3039   179.8274 </r>
       <r>   -10.1065     0.0000   180.0000 </r>
       <r>   -10.0160     0.0000   180.0000 </r>
       <r>    -9.9255     0.0000   180.0000 </r>
       <r>    -9.8351    22.1059   182.0000 </r>
       <r>    -9.7446    44.2006   185.9990 </r>
       <r>    -9.6541    44.1700   189.9990 </r>
       <r>    -9.5636    22.1252   192.0017 </r>
       <r>    -9.4732    46.0798   196.1725 </r>
       <r>    -9.3827     0.0001   198.0000 </r>
       <r>    -9.2922    50.6043   202.5784 </r>
       <r>    -9.2017   180.9759   220.3735 </r>
       <r>    -9.1113    73.2262   230.6250 </r>
       <r>    -9.0208    22.1100   236.0004 </r>
       <r>    -8.9303    22.1007   238.0000 </r>
       <r>    -8.8399    15.8845   239.4371 </r>
       <r>    -8.7494    22.1059   242.0000 </r>
       <r>    -8.6589     5.3601   242.4849 </r>
       <r>    -8.5684     0.0000   244.0000 </r>
       <r>    -8.4780    37.5268   247.3952 </r>
       <r>    -8.3875    22.1059   250.0000 </r>
       <r>    -8.2970    22.1058   252.0000 </r>
       <r>    -8.2065    31.6733   254.8656 </r>
       <r>    -8.1161    62.7687   263.6789 </r>
       <r>    -8.0256    21.5650   265.9511 </r>
       <r>    -7.9351    43.9450   269.9759 </r>
       <r>    -7.8446    51.7363   274.6808 </r>
       <r>    -7.7542    66.6123   282.0267 </r>
       <r>    -7.6637   122.9383   293.1493 </r>
       <r>    -7.5732    44.2050   298.0000 </r>
       <r>    -7.4827     0.0000   298.0000 </r>
       <r>    -7.3923    70.1426   304.3460 </r>
       <r>    -7.3018    22.1125   308.0006 </r>
       <r>    -7.2113    22.0990   310.0000 </r>
       <r>    -7.1209     0.0000   310.0000 </r>
       <r>    -7.0304     0.0000   310.0000 </r>
       <r>    -6.9399     0.0000   310.0000 </r>
       <r>    -6.8494     0.1556   310.0141 </r>
       <r>    -6.7590    34.2608   313.1138 </r>
       <r>    -6.6685     0.0000   314.0000 </r>
       <r>    -6.5780    44.2111   317.9999 </r>
       <r>    -6.4875    78.2142   325.0763 </r>
       <r>    -6.3971   129.4793   337.7145 </r>
       <r>    -6.3066    65.6079   343.9358 </r>
       <r>    -6.2161     0.0000   344.0000 </r>
       <r>    -6.1256     0.5397   344.0488 </r>
       <r>    -6.0352    21.5662   346.0000 </r>
       <r>    -5.9447    22.2291   348.0111 </r>
       <r>    -5.8542    85.9047   355.7834 </r>
       <r>    -5.7638    43.9432   359.9757 </r>
       <r>    -5.6733     0.0000   360.0000 </r>
       <r>    -5.5828     0.0000   360.0000 </r>
       <r>    -5.4923    22.1059   362.0000 </r>
       <r>    -5.4019     0.0000   362.0000 </r>
       <r>    -5.3114     0.0000   362.0000 </r>
       <r>    -5.2209     9.5222   362.8615 </r>
       <r>    -5.1304    79.2558   371.1710 </r>
       <r>    -5.0400    22.1003   374.0000 </r>
       <r>    -4.9495    27.7872   376.5140 </r>
       <r>    -4.8590    66.3177   384.0000 </r>
       <r>    -4.7685     0.0013   384.0001 </r>
       <r>    -4.6781    22.1046   386.0000 </r>
       <r>    -4.5876     0.0000   386.0000 </r>
       <r>    -4.4971     0.0000   386.0000 </r>
       <r>    -4.4066     0.0000   386.0000 </r>
       <r>    -4.3162     0.0000   386.0000 </r>
       <r>    -4.2257     0.0000   386.0000 </r>
       <r>    -4.1352     0.0000   386.0000 </r>
       <r>    -4.0448     0.0000   386.0000 </r>
       <r>    -3.9543     0.0000   386.0000 </r>
       <r>    -3.8638     0.0000   386.0000 </r>
       <r>    -3.7733     0.0000   386.0000 </r>
       <r>    -3.6829     0.0000   386.0000 </r>
       <r>    -3.5924     0.0000   386.0000 </r>
       <r>    -3.5019     0.0000   386.0000 </r>
       <r>    -3.4114     0.0000   386.0000 </r>
       <r>    -3.3210     0.0000   386.0000 </r>
       <r>    -3.2305     0.0000   386.0000 </r>
       <r>    -3.1400     0.0000   386.0000 </r>
       <r>    -3.0495     0.0000   386.0000 </r>
       <r>    -2.9591     0.0000   386.0000 </r>
       <r>    -2.8686     0.0000   386.0000 </r>
       <r>    -2.7781     0.0000   386.0000 </r>
       <r>    -2.6877     0.0000   386.0000 </r>
       <r>    -2.5972     0.0000   386.0000 </r>
       <r>    -2.5067     0.0000   386.0000 </r>
       <r>    -2.4162     0.0000   386.0000 </r>
       <r>    -2.3258     0.0000   386.0000 </r>
       <r>    -2.2353     0.0000   386.0000 </r>
       <r>    -2.1448     0.0000   386.0000 </r>
       <r>    -2.0543     0.0000   386.0000 </r>
       <r>    -1.9639     0.0000   386.0000 </r>
       <r>    -1.8734     0.0000   386.0000 </r>
       <r>    -1.7829     0.0000   386.0000 </r>
       <r>    -1.6924     0.0000   386.0000 </r>
       <r>    -1.6020     0.0000   386.0000 </r>
       <r>    -1.5115     0.0000   386.0000 </r>
       <r>    -1.4210     0.0000   386.0000 </r>
       <r>    -1.3305     0.0041   386.0004 </r>
       <r>    -1.2401    22.1018   388.0000 </r>
       <r>    -1.1496    22.1059   390.0000 </r>
       <r>    -1.0591     0.0000   390.0000 </r>
       <r>    -0.9687     0.0000   390.0000 </r>
       <r>    -0.8782     0.0000   390.0000 </r>
       <r>    -0.7877     0.0000   390.0000 </r>
       <r>    -0.6972     0.0000   390.0000 </r>
       <r>    -0.6068     0.0000   390.0000 </r>
       <r>    -0.5163     0.0000   390.0000 </r>
       <r>    -0.4258     0.0000   390.0000 </r>
       <r>    -0.3353     0.0000   390.0000 </r>
       <r>    -0.2449     0.0000   390.0000 </r>
       <r>    -0.1544     0.0000   390.0000 </r>
       <r>    -0.0639     0.0000   390.0000 </r>
       <r>     0.0266     0.0000   390.0000 </r>
       <r>     0.1170    22.1059   392.0000 </r>
       <r>     0.2075    14.2144   393.2860 </r>
       <r>     0.2980    75.0673   400.7916 </r>
       <r>     0.3884    25.9078   406.3440 </r>
       <r>     0.4789    33.1593   411.0000 </r>
       <r>     0.5694    22.1059   414.0000 </r>
       <r>     0.6599    22.1059   416.0000 </r>
       <r>     0.7503    28.7445   418.6006 </r>
       <r>     0.8408   102.5445   429.2777 </r>
       <r>     0.9313    44.0101   434.0000 </r>
       <r>     1.0218    35.4308   437.2056 </r>
       <r>     1.1122    25.9594   440.3486 </r>
       <r>     1.2027     0.0000   442.0000 </r>
       <r>     1.2932     0.0000   442.0000 </r>
       <r>     1.3837     0.0000   442.0000 </r>
       <r>     1.4741     0.0319   442.0029 </r>
       <r>     1.5646    22.0740   444.0000 </r>
       <r>     1.6551     0.0892   444.0081 </r>
       <r>     1.7456   119.9675   454.8620 </r>
       <r>     1.8360    47.1817   460.2687 </r>
       <r>     1.9265   119.7742   472.9653 </r>
       <r>     2.0170    22.6575   476.0499 </r>
       <r>     2.1074    46.0377   480.2151 </r>
       <r>     2.1979    66.2868   488.0000 </r>
       <r>     2.2884     0.0000   488.0000 </r>
       <r>     2.3789     0.0000   488.0000 </r>
       <r>     2.4693     0.0000   488.0000 </r>
       <r>     2.5598     0.0000   488.0000 </r>
       <r>     2.6503     0.0000   488.0000 </r>
       <r>     2.7408     0.0000   488.0000 </r>
       <r>     2.8312     0.0000   488.0000 </r>
       <r>     2.9217     0.0000   488.0000 </r>
       <r>     3.0122     0.0000   488.0000 </r>
       <r>     3.1027     0.0000   488.0000 </r>
       <r>     3.1931     0.0000   488.0000 </r>
       <r>     3.2836     0.0000   488.0000 </r>
       <r>     3.3741     0.0000   488.0000 </r>
      </set>
     </set>
    </array>
   </total>
  </dos>
 </calculation>
 <structure name="finalpos" >
  <crystal>
   <varray name="basis" >
    <v>      17.59966831       0.00000000       0.00000000 </v>
    <v>      -8.79983416      15.24175986       0.00000000 </v>
    <v>       0.00000000       0.00000000      19.92151445 </v>
   </varray>
   <i name="volume">   5343.94461817 </i>
   <varray name="rec_basis" >
    <v>       0.05681925       0.03280461       0.00000000 </v>
    <v>       0.00000000       0.06560922       0.00000000 </v>
    <v>       0.00000000       0.00000000       0.05019699 </v>
   </varray>
  </crystal>
  <varray name="positions" >
   <v>       0.99943010       0.00005992       0.50000000 </v>
   <v>       0.14164706       0.99871895       0.50000000 </v>
   <v>       0.28492260       0.99841663       0.50000000 </v>
   <v>       0.42850047       0.99871895       0.50000000 </v>
   <v>       0.57205839       0.00005992       0.50000000 </v>
   <v>       0.71530655       0.00214292       0.50000000 </v>
   <v>       0.85826494       0.00214292       0.50000000 </v>
   <v>       0.00080792       0.14408264       0.50000000 </v>
   <v>       0.14259355       0.14244783       0.50000000 </v>
   <v>       0.28470221       0.14112972       0.50000000 </v>
   <v>       0.42785608       0.14112972       0.50000000 </v>
   <v>       0.57128286       0.14244783       0.50000000 </v>
   <v>       0.71470329       0.14408264       0.50000000 </v>
   <v>       0.85805263       0.14467669       0.50000000 </v>
   <v>       0.00095476       0.28713011       0.50000000 </v>
   <v>       0.14372552       0.28645370       0.50000000 </v>
   <v>       0.28540977       0.28469374       0.50000000 </v>
   <v>       0.42724431       0.28306005       0.50000000 </v>
   <v>       0.57071254       0.28469374       0.50000000 </v>
   <v>       0.71415674       0.28645370       0.50000000 </v>
   <v>       0.85760392       0.28713011       0.50000000 </v>
   <v>       0.00054479       0.42966101       0.50000000 </v>
   <v>       0.14422690       0.42957551       0.50000000 </v>
   <v>       0.28730213       0.42918005       0.50000000 </v>
   <v>       0.42797654       0.42569726       0.50000000 </v>
   <v>       0.56914930       0.42569726       0.50000000 </v>
   <v>       0.71330650       0.42918005       0.50000000 </v>
   <v>       0.85677719       0.42957551       0.50000000 </v>
   <v>       0.99928255       0.57181462       0.50000000 </v>
   <v>       0.14396064       0.57181462       0.50000000 </v>
   <v>       0.28862787       0.57181625       0.50000000 </v>
   <v>       0.43313209       0.57215564       0.50000000 </v>
   <v>       0.71045212       0.57215564       0.50000000 </v>
   <v>       0.85461695       0.57181625       0.50000000 </v>
   <v>       0.99707234       0.71370518       0.50000000 </v>
   <v>       0.14255519       0.71368182       0.50000000 </v>
   <v>       0.28806142       0.71370518       0.50000000 </v>
   <v>       0.43464191       0.71382540       0.50000000 </v>
   <v>       0.58510826       0.71683756       0.50000000 </v>
   <v>       0.70258968       0.71626937       0.50000000 </v>
   <v>       0.85061206       0.71382540       0.50000000 </v>
   <v>       0.99777175       0.85613493       0.50000000 </v>
   <v>       0.14160898       0.85591288       0.50000000 </v>
   <v>       0.28573247       0.85591288       0.50000000 </v>
   <v>       0.42979175       0.85613493       0.50000000 </v>
   <v>       0.57342541       0.85758690       0.50000000 </v>
   <v>       0.71640633       0.86138410       0.50000000 </v>
   <v>       0.85559006       0.85758690       0.50000000 </v>
   <v>       0.04754270       0.09547788       0.50000000 </v>
   <v>       0.18957833       0.09405657       0.50000000 </v>
   <v>       0.33254182       0.09365506       0.50000000 </v>
   <v>       0.47590681       0.09405657       0.50000000 </v>
   <v>       0.61936376       0.09547788       0.50000000 </v>
   <v>       0.76280004       0.09719274       0.50000000 </v>
   <v>       0.90582126       0.09719274       0.50000000 </v>
   <v>       0.04854983       0.23934281       0.50000000 </v>
   <v>       0.19048138       0.23782962       0.50000000 </v>
   <v>       0.33234878       0.23634667       0.50000000 </v>
   <v>       0.47542646       0.23634667       0.50000000 </v>
   <v>       0.61877681       0.23782962       0.50000000 </v>
   <v>       0.76222155       0.23934281       0.50000000 </v>
   <v>       0.90562797       0.23982737       0.50000000 </v>
   <v>       0.04871288       0.38232824       0.50000000 </v>
   <v>       0.19188940       0.38184213       0.50000000 </v>
   <v>       0.33352206       0.38013969       0.50000000 </v>
   <v>       0.47472270       0.37801683       0.50000000 </v>
   <v>       0.61804620       0.38013969       0.50000000 </v>
   <v>       0.76138130       0.38184213       0.50000000 </v>
   <v>       0.90504393       0.38232824       0.50000000 </v>
   <v>       0.04810654       0.52478452       0.50000000 </v>
   <v>       0.19263929       0.52476864       0.50000000 </v>
   <v>       0.33696521       0.52455433       0.50000000 </v>
   <v>       0.47833704       0.52146721       0.50000000 </v>
   <v>       0.61455874       0.52146721       0.50000000 </v>
   <v>       0.75901769       0.52455433       0.50000000 </v>
   <v>       0.90355792       0.52476864       0.50000000 </v>
   <v>       0.04642473       0.66685228       0.50000000 </v>
   <v>       0.19185612       0.66685228       0.50000000 </v>
   <v>       0.33777931       0.66688794       0.50000000 </v>
   <v>       0.48615700       0.66710760       0.50000000 </v>
   <v>       0.75237918       0.66710760       0.50000000 </v>
   <v>       0.90053720       0.66688794       0.50000000 </v>
   <v>       0.04582562       0.80879365       0.50000000 </v>
   <v>       0.19009580       0.80876303       0.50000000 </v>
   <v>       0.33439660       0.80879365       0.50000000 </v>
   <v>       0.47844872       0.80897069       0.50000000 </v>
   <v>       0.62209487       0.81129474       0.50000000 </v>
   <v>       0.76062845       0.81129474       0.50000000 </v>
   <v>       0.90195054       0.80897069       0.50000000 </v>
   <v>       0.04629157       0.95154386       0.50000000 </v>
   <v>       0.18948291       0.95113037       0.50000000 </v>
   <v>       0.33307603       0.95113037       0.50000000 </v>
   <v>       0.47668087       0.95154386       0.50000000 </v>
   <v>       0.62015751       0.95313740       0.50000000 </v>
   <v>       0.76355772       0.95568687       0.50000000 </v>
   <v>       0.90440847       0.95313740       0.50000000 </v>
   <v>       0.56830873       0.56518888       0.50000000 </v>
  </varray>
 </structure>
</modeling>
