nqpoint: 459    
npath: 9      
segment_nqpoint:
- 51
- 51
- 51
- 51
- 51
- 51
- 51
- 51
- 51
labels:
- [ '$\Gamma$', '$\mathrm{M}$' ]
- [ '$\mathrm{M}$', '$\mathrm{K}$' ]
- [ '$\mathrm{K}$', '$\Gamma$' ]
- [ '$\Gamma$', '$\mathrm{A}$' ]
- [ '$\mathrm{A}$', '$\mathrm{L}$' ]
- [ '$\mathrm{L}$', '$\mathrm{H}$' ]
- [ '$\mathrm{H}$', '$\mathrm{A}$' ]
- [ '$\mathrm{L}$', '$\mathrm{M}$' ]
- [ '$\mathrm{H}$', '$\mathrm{K}$' ]
reciprocal_lattice:
- [   0.31348051,   0.18098806,   0.00000000 ] # a*
- [   0.00000000,   0.36197611,   0.00000000 ] # b*
- [   0.00000000,   0.00000000,   0.04728764 ] # c*
natom: 3      
lattice:
- [     3.189990997285137,     0.000000000000000,     0.000000000000000 ] # a
- [    -1.594995498642569,     2.762613241492584,     0.000000000000000 ] # b
- [     0.000000000000000,     0.000000000000000,    21.147172929902727 ] # c
points:
- symbol: Mo # 1
  coordinates: [  0.000000000000000,  0.000000000000000,  0.500000000000000 ]
  mass: 95.960000
- symbol: S  # 2
  coordinates: [  0.666666666666664,  0.333333333333336,  0.426217872663280 ]
  mass: 32.065000
- symbol: S  # 3
  coordinates: [  0.666666666666664,  0.333333333333336,  0.573782127336720 ]
  mass: 32.065000

phonon:
- q-position: [    0.0000000,    0.0000000,    0.0000000 ]
  distance:    0.0000000
  band:
  - # 1
    frequency:   -0.0024271845
  - # 2
    frequency:   -0.0004391778
  - # 3
    frequency:   -0.0004391778
  - # 4
    frequency:    8.2780714003
  - # 5
    frequency:    8.2780714003
  - # 6
    frequency:   11.1386733518
  - # 7
    frequency:   11.1386733518
  - # 8
    frequency:   11.8598171713
  - # 9
    frequency:   13.7104133844

- q-position: [    0.0100000,    0.0000000,    0.0000000 ]
  distance:    0.0036198
  band:
  - # 1
    frequency:   -0.0138396547
  - # 2
    frequency:    0.1475628468
  - # 3
    frequency:    0.2375686449
  - # 4
    frequency:    8.2787972290
  - # 5
    frequency:    8.2809577297
  - # 6
    frequency:   11.1372199910
  - # 7
    frequency:   11.1382869318
  - # 8
    frequency:   11.8597056585
  - # 9
    frequency:   13.7079022827

- q-position: [    0.0200000,    0.0000000,    0.0000000 ]
  distance:    0.0072395
  band:
  - # 1
    frequency:   -0.0188539485
  - # 2
    frequency:    0.2949487399
  - # 3
    frequency:    0.4748643458
  - # 4
    frequency:    8.2809694740
  - # 5
    frequency:    8.2895822644
  - # 6
    frequency:   11.1328602079
  - # 7
    frequency:   11.1371275922
  - # 8
    frequency:   11.8593831328
  - # 9
    frequency:   13.7003762081

- q-position: [    0.0300000,    0.0000000,    0.0000000 ]
  distance:    0.0108593
  band:
  - # 1
    frequency:    0.0258038772
  - # 2
    frequency:    0.4419791290
  - # 3
    frequency:    0.7116127288
  - # 4
    frequency:    8.2845724898
  - # 5
    frequency:    8.3038428612
  - # 6
    frequency:   11.1255957783
  - # 7
    frequency:   11.1351951067
  - # 8
    frequency:   11.8588845938
  - # 9
    frequency:   13.6878568187

- q-position: [    0.0400000,    0.0000000,    0.0000000 ]
  distance:    0.0144790
  band:
  - # 1
    frequency:    0.0690013367
  - # 2
    frequency:    0.5884779844
  - # 3
    frequency:    0.9475401071
  - # 4
    frequency:    8.2895804571
  - # 5
    frequency:    8.3235732370
  - # 6
    frequency:   11.1154324797
  - # 7
    frequency:   11.1324891366
  - # 8
    frequency:   11.8582650233
  - # 9
    frequency:   13.6703801012

- q-position: [    0.0500000,    0.0000000,    0.0000000 ]
  distance:    0.0180988
  band:
  - # 1
    frequency:    0.1203021500
  - # 2
    frequency:    0.7342708773
  - # 3
    frequency:    1.1823724626
  - # 4
    frequency:    8.2959577599
  - # 5
    frequency:    8.3485485685
  - # 6
    frequency:   11.1023839525
  - # 7
    frequency:   11.1290092895
  - # 8
    frequency:   11.8575947449
  - # 9
    frequency:   13.6479962151

- q-position: [    0.0600000,    0.0000000,    0.0000000 ]
  distance:    0.0217186
  band:
  - # 1
    frequency:    0.1813876793
  - # 2
    frequency:    0.8791856513
  - # 3
    frequency:    1.4158354083
  - # 4
    frequency:    8.3036595008
  - # 5
    frequency:    8.3784927092
  - # 6
    frequency:   11.0864764183
  - # 7
    frequency:   11.1247552006
  - # 8
    frequency:   11.8569536461
  - # 9
    frequency:   13.6207692927

- q-position: [    0.0700000,    0.0000000,    0.0000000 ]
  distance:    0.0253383
  band:
  - # 1
    frequency:    0.2521874725
  - # 2
    frequency:    1.0230529876
  - # 3
    frequency:    1.6476540753
  - # 4
    frequency:    8.3126321395
  - # 5
    frequency:    8.4130865007
  - # 6
    frequency:   11.0677536828
  - # 7
    frequency:   11.1197266385
  - # 8
    frequency:   11.8564248741
  - # 9
    frequency:   13.5887772115

- q-position: [    0.0800000,    0.0000000,    0.0000000 ]
  distance:    0.0289581
  band:
  - # 1
    frequency:    0.3323308646
  - # 2
    frequency:    1.1657069393
  - # 3
    frequency:    1.8775529720
  - # 4
    frequency:    8.3228142397
  - # 5
    frequency:    8.4519766240
  - # 6
    frequency:   11.0462818307
  - # 7
    frequency:   11.1139236340
  - # 8
    frequency:   11.8560886348
  - # 9
    frequency:   13.5521113608

- q-position: [    0.0900000,    0.0000000,    0.0000000 ]
  distance:    0.0325779
  band:
  - # 1
    frequency:    0.4213349764
  - # 2
    frequency:    1.3069854405
  - # 3
    frequency:    2.1052558201
  - # 4
    frequency:    8.3341373058
  - # 5
    frequency:    8.4947844633
  - # 6
    frequency:   11.0221530942
  - # 7
    frequency:   11.1073466337
  - # 8
    frequency:   11.8560166621
  - # 9
    frequency:   13.5108764252

- q-position: [    0.1000000,    0.0000000,    0.0000000 ]
  distance:    0.0361976
  band:
  - # 1
    frequency:    0.5186579300
  - # 2
    frequency:    1.4467307852
  - # 3
    frequency:    2.3304853690
  - # 4
    frequency:    8.3465266890
  - # 5
    frequency:    8.5411145233
  - # 6
    frequency:   10.9954885252
  - # 7
    frequency:   11.0999966781
  - # 8
    frequency:   11.8562677804
  - # 9
    frequency:   13.4651902130

- q-position: [    0.1100000,    0.0000000,    0.0000000 ]
  distance:    0.0398174
  band:
  - # 1
    frequency:    0.6237222643
  - # 2
    frequency:    1.5847900698
  - # 3
    frequency:    2.5529631907
  - # 4
    frequency:    8.3599025414
  - # 5
    frequency:    8.5905620410
  - # 6
    frequency:   10.9664392863
  - # 7
    frequency:   11.0918756048
  - # 8
    frequency:   11.8568847947
  - # 9
    frequency:   13.4151835541

- q-position: [    0.1200000,    0.0000000,    0.0000000 ]
  distance:    0.0434371
  band:
  - # 1
    frequency:    0.7359288133
  - # 2
    frequency:    1.7210155927
  - # 3
    frequency:    2.7724094625
  - # 4
    frequency:    8.3741807981
  - # 5
    frequency:    8.6427195410
  - # 6
    frequency:   10.9351865724
  - # 7
    frequency:   11.0829862771
  - # 8
    frequency:   11.8578927549
  - # 9
    frequency:   13.3610002981

- q-position: [    0.1300000,    0.0000000,    0.0000000 ]
  distance:    0.0470569
  band:
  - # 1
    frequency:    0.8546664523
  - # 2
    frequency:    1.8552652039
  - # 3
    frequency:    2.9885427443
  - # 4
    frequency:    8.3892741641
  - # 5
    frequency:    8.6971821894
  - # 6
    frequency:   10.9019403292
  - # 7
    frequency:   11.0733328393
  - # 8
    frequency:   11.8592984760
  - # 9
    frequency:   13.3027974376

- q-position: [    0.1400000,    0.0000000,    0.0000000 ]
  distance:    0.0506767
  band:
  - # 1
    frequency:    0.9793194948
  - # 2
    frequency:    1.9874025971
  - # 3
    frequency:    3.2010797669
  - # 4
    frequency:    8.4050930879
  - # 5
    frequency:    8.7535518955
  - # 6
    frequency:   10.8669370346
  - # 7
    frequency:   11.0629209977
  - # 8
    frequency:   11.8610910931
  - # 9
    frequency:   13.2407453852

- q-position: [    0.1500000,    0.0000000,    0.0000000 ]
  distance:    0.0542964
  band:
  - # 1
    frequency:    1.1092734548
  - # 2
    frequency:    2.1172975372
  - # 3
    frequency:    3.4097352497
  - # 4
    frequency:    8.4215467011
  - # 5
    frequency:    8.8114401826
  - # 6
    frequency:   10.8304368473
  - # 7
    frequency:   11.0517583285
  - # 8
    frequency:   11.8632433850
  - # 9
    frequency:   13.1750284279

- q-position: [    0.1600000,    0.0000000,    0.0000000 ]
  distance:    0.0579162
  band:
  - # 1
    frequency:    1.2439195381
  - # 2
    frequency:    2.2448260183
  - # 3
    frequency:    3.6142217744
  - # 4
    frequency:    8.4385437098
  - # 5
    frequency:    8.8704699042
  - # 6
    frequency:   10.7927204058
  - # 7
    frequency:   11.0398546117
  - # 8
    frequency:   11.8657136053
  - # 9
    frequency:   13.1058453819

- q-position: [    0.1700000,    0.0000000,    0.0000000 ]
  distance:    0.0615359
  band:
  - # 1
    frequency:    1.3826580930
  - # 2
    frequency:    2.3698703442
  - # 3
    frequency:    3.8142497512
  - # 4
    frequency:    8.4559932202
  - # 5
    frequency:    8.9302759155
  - # 6
    frequency:   10.7540855091
  - # 7
    frequency:   11.0272221888
  - # 8
    frequency:   11.8684475995
  - # 9
    frequency:   13.0334104707

- q-position: [    0.1800000,    0.0000000,    0.0000000 ]
  distance:    0.0651557
  band:
  - # 1
    frequency:    1.5249011991
  - # 2
    frequency:    2.4923191307
  - # 3
    frequency:    4.0095275225
  - # 4
    frequency:    8.4738054902
  - # 5
    frequency:    8.9905048270
  - # 6
    frequency:   10.7148438337
  - # 7
    frequency:   11.0138763448
  - # 8
    frequency:   11.8713810433
  - # 9
    frequency:   12.9579544430

- q-position: [    0.1900000,    0.0000000,    0.0000000 ]
  distance:    0.0687755
  band:
  - # 1
    frequency:    1.6700745387
  - # 2
    frequency:    2.6120672249
  - # 3
    frequency:    4.1997616605
  - # 4
    frequency:    8.4918925950
  - # 5
    frequency:    9.0508139737
  - # 6
    frequency:   10.6753177660
  - # 7
    frequency:   10.9998357085
  - # 8
    frequency:   11.8744416901
  - # 9
    frequency:   12.8797259480

- q-position: [    0.2000000,    0.0000000,    0.0000000 ]
  distance:    0.0723952
  band:
  - # 1
    frequency:    1.8176186747
  - # 2
    frequency:    2.7290155428
  - # 3
    frequency:    4.3846575292
  - # 4
    frequency:    8.5101690019
  - # 5
    frequency:    9.1108697260
  - # 6
    frequency:   10.6358373594
  - # 7
    frequency:   10.9851226689
  - # 8
    frequency:   11.8775515652
  - # 9
    frequency:   12.7989931809

- q-position: [    0.2100000,    0.0000000,    0.0000000 ]
  distance:    0.0760150
  band:
  - # 1
    frequency:    1.9669898384
  - # 2
    frequency:    2.8430708262
  - # 3
    frequency:    4.5639201931
  - # 4
    frequency:    8.5285520513
  - # 5
    frequency:    9.1703452656
  - # 6
    frequency:   10.5967373627
  - # 7
    frequency:   10.9697638007
  - # 8
    frequency:   11.8806290764
  - # 9
    frequency:   12.7160458051

- q-position: [    0.2200000,    0.0000000,    0.0000000 ]
  distance:    0.0796347
  band:
  - # 1
    frequency:    2.1176603065
  - # 2
    frequency:    2.9541453239
  - # 3
    frequency:    4.7372557689
  - # 4
    frequency:    8.5469623422
  - # 5
    frequency:    9.2289179343
  - # 6
    frequency:   10.5583542242
  - # 7
    frequency:   10.9537902923
  - # 8
    frequency:   11.8835910336
  - # 9
    frequency:   12.6311971543

- q-position: [    0.2300000,    0.0000000,    0.0000000 ]
  distance:    0.0832545
  band:
  - # 1
    frequency:    2.2691184331
  - # 2
    frequency:    3.0621564043
  - # 3
    frequency:    4.9043733237
  - # 4
    frequency:    8.5653240247
  - # 5
    frequency:    9.2862662640
  - # 6
    frequency:   10.5210229379
  - # 7
    frequency:   10.9372383666
  - # 8
    frequency:   11.8863545810
  - # 9
    frequency:   12.5447866985

- q-position: [    0.2400000,    0.0000000,    0.0000000 ]
  distance:    0.0868743
  band:
  - # 1
    frequency:    2.4208683785
  - # 2
    frequency:    3.1670261071
  - # 3
    frequency:    5.0649874320
  - # 4
    frequency:    8.5835650039
  - # 5
    frequency:    9.3420667986
  - # 6
    frequency:   10.4850735820
  - # 7
    frequency:   10.9201496842
  - # 8
    frequency:   11.8888390484
  - # 9
    frequency:   12.4571827411

- q-position: [    0.2500000,    0.0000000,    0.0000000 ]
  distance:    0.0904940
  band:
  - # 1
    frequency:    2.5724295666
  - # 2
    frequency:    3.2686806479
  - # 3
    frequency:    5.2188214944
  - # 4
    frequency:    8.6016170605
  - # 5
    frequency:    9.3959908370
  - # 6
    frequency:   10.4508273923
  - # 7
    frequency:   10.9025717174
  - # 8
    frequency:   11.8909677269
  - # 9
    frequency:   12.3687852763

- q-position: [    0.2600000,    0.0000000,    0.0000000 ]
  distance:    0.0941138
  band:
  - # 1
    frequency:    2.7233358838
  - # 2
    frequency:    3.3670498870
  - # 3
    frequency:    5.3656119073
  - # 4
    frequency:    8.6194158967
  - # 5
    frequency:    9.4477012737
  - # 6
    frequency:   10.4185922285
  - # 7
    frequency:   10.8845580795
  - # 8
    frequency:   11.8926695701
  - # 9
    frequency:   12.2800288759

- q-position: [    0.2700000,    0.0000000,    0.0000000 ]
  distance:    0.0977336
  band:
  - # 1
    frequency:    2.8731346267
  - # 2
    frequency:    3.4620667796
  - # 3
    frequency:    5.5051131317
  - # 4
    frequency:    8.6369011162
  - # 5
    frequency:    9.4968497871
  - # 6
    frequency:   10.3886573230
  - # 7
    frequency:   10.8661687974
  - # 8
    frequency:   11.8938808164
  - # 9
    frequency:   12.1913853837

- q-position: [    0.2800000,    0.0000000,    0.0000000 ]
  distance:    0.1013533
  band:
  - # 1
    frequency:    3.0213851940
  - # 2
    frequency:    3.5536668222
  - # 3
    frequency:    5.6371036503
  - # 4
    frequency:    8.6540161480
  - # 5
    frequency:    9.5430747558
  - # 6
    frequency:   10.3612872657
  - # 7
    frequency:   10.8474705088
  - # 8
    frequency:   11.8945465237
  - # 9
    frequency:   12.1033660595

- q-position: [    0.2900000,    0.0000000,    0.0000000 ]
  distance:    0.1049731
  band:
  - # 1
    frequency:    3.1676575174
  - # 2
    frequency:    3.6417875145
  - # 3
    frequency:    5.7613927140
  - # 4
    frequency:    8.6707081252
  - # 5
    frequency:    9.5860004656
  - # 6
    frequency:   10.3367152642
  - # 7
    frequency:   10.8285365709
  - # 8
    frequency:   11.8946220011
  - # 9
    frequency:   12.0165226184

- q-position: [    0.3000000,    0.0000000,    0.0000000 ]
  distance:    0.1085928
  band:
  - # 1
    frequency:    3.3115302229
  - # 2
    frequency:    3.7263678523
  - # 3
    frequency:    5.8778276648
  - # 4
    frequency:    8.6869277290
  - # 5
    frequency:    9.6252384180
  - # 6
    frequency:   10.3151358346
  - # 7
    frequency:   10.8094470624
  - # 8
    frequency:   11.8940741219
  - # 9
    frequency:   11.9314463481

- q-position: [    0.3100000,    0.0000000,    0.0000000 ]
  distance:    0.1122126
  band:
  - # 1
    frequency:    3.4525885221
  - # 2
    frequency:    3.8073478708
  - # 3
    frequency:    5.9863014927
  - # 4
    frequency:    8.7026290090
  - # 5
    frequency:    9.6603918546
  - # 6
    frequency:   10.2966972162
  - # 7
    frequency:   10.7902886659
  - # 8
    frequency:   11.8487641823
  - # 9
    frequency:   11.8928824961

- q-position: [    0.3200000,    0.0000000,    0.0000000 ]
  distance:    0.1158324
  band:
  - # 1
    frequency:    3.5904218397
  - # 2
    frequency:    3.8846682532
  - # 3
    frequency:    6.0867601480
  - # 4
    frequency:    8.7177691889
  - # 5
    frequency:    9.6910649044
  - # 6
    frequency:   10.2814939398
  - # 7
    frequency:   10.7711544144
  - # 8
    frequency:   11.7691302897
  - # 9
    frequency:   11.8910404814

- q-position: [    0.3300000,    0.0000000,    0.0000000 ]
  distance:    0.1194521
  band:
  - # 1
    frequency:    3.7246212036
  - # 2
    frequency:    3.9582700202
  - # 3
    frequency:    6.1792090163
  - # 4
    frequency:    8.7323084685
  - # 5
    frequency:    9.7168779332
  - # 6
    frequency:   10.2695601064
  - # 7
    frequency:   10.7521432940
  - # 8
    frequency:   11.6932115595
  - # 9
    frequency:   11.8885560077

- q-position: [    0.3400000,    0.0000000,    0.0000000 ]
  distance:    0.1230719
  band:
  - # 1
    frequency:    3.8547764477
  - # 2
    frequency:    4.0280943137
  - # 3
    frequency:    6.2637178989
  - # 4
    frequency:    8.7462098293
  - # 5
    frequency:    9.7374904976
  - # 6
    frequency:   10.2608640092
  - # 7
    frequency:   10.7333596892
  - # 8
    frequency:   11.6216655103
  - # 9
    frequency:   11.8854521880

- q-position: [    0.3500000,    0.0000000,    0.0000000 ]
  distance:    0.1266916
  band:
  - # 1
    frequency:    3.9804733115
  - # 2
    frequency:    4.0940822840
  - # 3
    frequency:    6.3404238470
  - # 4
    frequency:    8.7594388507
  - # 5
    frequency:    9.7526324986
  - # 6
    frequency:   10.2553047379
  - # 7
    frequency:   10.7149126698
  - # 8
    frequency:   11.5551099324
  - # 9
    frequency:   11.8817676871

- q-position: [    0.3600000,    0.0000000,    0.0000000 ]
  distance:    0.1303114
  band:
  - # 1
    frequency:    4.1012905682
  - # 2
    frequency:    4.1561750891
  - # 3
    frequency:    6.4095313008
  - # 4
    frequency:    8.7719635436
  - # 5
    frequency:    9.7621424301
  - # 6
    frequency:   10.2527113234
  - # 7
    frequency:   10.6969151150
  - # 8
    frequency:   11.4940852303
  - # 9
    frequency:   11.8775568120

- q-position: [    0.3700000,    0.0000000,    0.0000000 ]
  distance:    0.1339312
  band:
  - # 1
    frequency:    4.2143140091
  - # 2
    frequency:    4.2167973662
  - # 3
    frequency:    6.4713091756
  - # 4
    frequency:    8.7837542053
  - # 5
    frequency:    9.7660090524
  - # 6
    frequency:   10.2528448081
  - # 7
    frequency:   10.6794826783
  - # 8
    frequency:   11.4390129536
  - # 9
    frequency:   11.8728892861

- q-position: [    0.3800000,    0.0000000,    0.0000000 ]
  distance:    0.1375509
  band:
  - # 1
    frequency:    4.2684406765
  - # 2
    frequency:    4.3265510362
  - # 3
    frequency:    6.5260848048
  - # 4
    frequency:    8.7947832984
  - # 5
    frequency:    9.7644099607
  - # 6
    frequency:   10.2554033843
  - # 7
    frequency:   10.6627326032
  - # 8
    frequency:   11.3901568041
  - # 9
    frequency:   11.8678496572

- q-position: [    0.3900000,    0.0000000,    0.0000000 ]
  distance:    0.1411707
  band:
  - # 1
    frequency:    4.3184974172
  - # 2
    frequency:    4.4300956876
  - # 3
    frequency:    6.5742349397
  - # 4
    frequency:    8.8050253558
  - # 5
    frequency:    9.7577386123
  - # 6
    frequency:   10.2600304769
  - # 7
    frequency:   10.6467824005
  - # 8
    frequency:   11.3475942537
  - # 9
    frequency:   11.8625362889

- q-position: [    0.4000000,    0.0000000,    0.0000000 ]
  distance:    0.1447904
  band:
  - # 1
    frequency:    4.3644276959
  - # 2
    frequency:    4.5269619834
  - # 3
    frequency:    6.6161742855
  - # 4
    frequency:    8.8144569122
  - # 5
    frequency:    9.7466118284
  - # 6
    frequency:   10.2663253887
  - # 7
    frequency:   10.6317484093
  - # 8
    frequency:   11.3112063969
  - # 9
    frequency:   11.8570598742

- q-position: [    0.4100000,    0.0000000,    0.0000000 ]
  distance:    0.1484102
  band:
  - # 1
    frequency:    4.4061766525
  - # 2
    frequency:    4.6166685398
  - # 3
    frequency:    6.6523422538
  - # 4
    frequency:    8.8230564598
  - # 5
    frequency:    9.7318532333
  - # 6
    frequency:   10.2738559417
  - # 7
    frequency:   10.6177442643
  - # 8
    frequency:   11.2806901686
  - # 9
    frequency:   11.8515414137

- q-position: [    0.4200000,    0.0000000,    0.0000000 ]
  distance:    0.1520300
  band:
  - # 1
    frequency:    4.4436917126
  - # 2
    frequency:    4.6987254090
  - # 3
    frequency:    6.6831887277
  - # 4
    frequency:    8.8308044281
  - # 5
    frequency:    9.7144535541
  - # 6
    frequency:   10.2821724421
  - # 7
    frequency:   10.6048793011
  - # 8
    frequency:   11.2555915909
  - # 9
    frequency:   11.8461096090

- q-position: [    0.4300000,    0.0000000,    0.0000000 ]
  distance:    0.1556497
  band:
  - # 1
    frequency:    4.4769232537
  - # 2
    frequency:    4.7726400636
  - # 3
    frequency:    6.7091596323
  - # 4
    frequency:    8.8376831829
  - # 5
    frequency:    9.6955138913
  - # 6
    frequency:   10.2908222847
  - # 7
    frequency:   10.5932569334
  - # 8
    frequency:   11.2353535755
  - # 9
    frequency:   11.8408976424

- q-position: [    0.4400000,    0.0000000,    0.0000000 ]
  distance:    0.1592695
  band:
  - # 1
    frequency:    4.5058253030
  - # 2
    frequency:    4.8379261653
  - # 3
    frequency:    6.7306830229
  - # 4
    frequency:    8.8436770421
  - # 5
    frequency:    9.6761808146
  - # 6
    frequency:   10.2993645711
  - # 7
    frequency:   10.5829730419
  - # 8
    frequency:   11.2193691999
  - # 9
    frequency:   11.8360393556

- q-position: [    0.4500000,    0.0000000,    0.0000000 ]
  distance:    0.1628893
  band:
  - # 1
    frequency:    4.5303562411
  - # 2
    frequency:    4.8941151620
  - # 3
    frequency:    6.7481562559
  - # 4
    frequency:    8.8487723035
  - # 5
    frequency:    9.6575817601
  - # 6
    frequency:   10.3073842100
  - # 7
    frequency:   10.5741144142
  - # 8
    frequency:   11.2070320003
  - # 9
    frequency:   11.8316648960

- q-position: [    0.4600000,    0.0000000,    0.0000000 ]
  distance:    0.1665090
  band:
  - # 1
    frequency:    4.5504794855
  - # 2
    frequency:    4.9407704025
  - # 3
    frequency:    6.7619346356
  - # 4
    frequency:    8.8529572803
  - # 5
    frequency:    9.6407666840
  - # 6
    frequency:   10.3145050626
  - # 7
    frequency:   10.5667572820
  - # 8
    frequency:   11.1977776974
  - # 9
    frequency:   11.8278959751

- q-position: [    0.4700000,    0.0000000,    0.0000000 ]
  distance:    0.1701288
  band:
  - # 1
    frequency:    4.5661641263
  - # 2
    frequency:    4.9775030200
  - # 3
    frequency:    6.7723217737
  - # 4
    frequency:    8.8562223402
  - # 5
    frequency:    9.6266589205
  - # 6
    frequency:   10.3204017787
  - # 7
    frequency:   10.5609659940
  - # 8
    frequency:   11.1911152151
  - # 9
    frequency:   11.8248409670

- q-position: [    0.4800000,    0.0000000,    0.0000000 ]
  distance:    0.1737485
  band:
  - # 1
    frequency:    4.5773854886
  - # 2
    frequency:    5.0039883790
  - # 3
    frequency:    6.7795617609
  - # 4
    frequency:    8.8585599438
  - # 5
    frequency:    9.6160159433
  - # 6
    frequency:   10.3248100124
  - # 7
    frequency:   10.5567918672
  - # 8
    frequency:   11.1866475547
  - # 9
    frequency:   11.8225901525

- q-position: [    0.4900000,    0.0000000,    0.0000000 ]
  distance:    0.1773683
  band:
  - # 1
    frequency:    4.5841255966
  - # 2
    frequency:    5.0199815159
  - # 3
    frequency:    6.7838331598
  - # 4
    frequency:    8.8599646789
  - # 5
    frequency:    9.6093996203
  - # 6
    frequency:   10.3275347366
  - # 7
    frequency:   10.5542722527
  - # 8
    frequency:   11.1840845530
  - # 9
    frequency:   11.8212114687

- q-position: [    0.5000000,    0.0000000,    0.0000000 ]
  distance:    0.1809881
  band:
  - # 1
    frequency:    4.5863735217
  - # 2
    frequency:    5.0253298412
  - # 3
    frequency:    6.7852447775
  - # 4
    frequency:    8.8604332866
  - # 5
    frequency:    9.6071553440
  - # 6
    frequency:   10.3284564034
  - # 7
    frequency:   10.5534298438
  - # 8
    frequency:   11.1832499147
  - # 9
    frequency:   11.8207471331

- q-position: [    0.5000000,    0.0000000,    0.0000000 ]
  distance:    0.1809881
  band:
  - # 1
    frequency:    4.5863735217
  - # 2
    frequency:    5.0253298412
  - # 3
    frequency:    6.7852447775
  - # 4
    frequency:    8.8604332866
  - # 5
    frequency:    9.6071553440
  - # 6
    frequency:   10.3284564034
  - # 7
    frequency:   10.5534298438
  - # 8
    frequency:   11.1832499147
  - # 9
    frequency:   11.8207471331

- q-position: [    0.4966667,    0.0066667,    0.0000000 ]
  distance:    0.1830779
  band:
  - # 1
    frequency:    4.5880403061
  - # 2
    frequency:    5.0253907138
  - # 3
    frequency:    6.7845426007
  - # 4
    frequency:    8.8611756590
  - # 5
    frequency:    9.6069849273
  - # 6
    frequency:   10.3279074849
  - # 7
    frequency:   10.5539878594
  - # 8
    frequency:   11.1829486404
  - # 9
    frequency:   11.8203613645

- q-position: [    0.4933333,    0.0133333,    0.0000000 ]
  distance:    0.1851678
  band:
  - # 1
    frequency:    4.5930287932
  - # 2
    frequency:    5.0255751708
  - # 3
    frequency:    6.7824417876
  - # 4
    frequency:    8.8633998831
  - # 5
    frequency:    9.6064737517
  - # 6
    frequency:   10.3262705947
  - # 7
    frequency:   10.5556505816
  - # 8
    frequency:   11.1820451084
  - # 9
    frequency:   11.8192053269

- q-position: [    0.4900000,    0.0200000,    0.0000000 ]
  distance:    0.1872577
  band:
  - # 1
    frequency:    4.6013034831
  - # 2
    frequency:    5.0258886957
  - # 3
    frequency:    6.7789595009
  - # 4
    frequency:    8.8670972900
  - # 5
    frequency:    9.6056220559
  - # 6
    frequency:   10.3235739272
  - # 7
    frequency:   10.5583854578
  - # 8
    frequency:   11.1805401941
  - # 9
    frequency:   11.8172828255

- q-position: [    0.4866667,    0.0266667,    0.0000000 ]
  distance:    0.1893475
  band:
  - # 1
    frequency:    4.6128055301
  - # 2
    frequency:    5.0263403109
  - # 3
    frequency:    6.7741243806
  - # 4
    frequency:    8.8722534667
  - # 5
    frequency:    9.6044302907
  - # 6
    frequency:   10.3198602153
  - # 7
    frequency:   10.5621425577
  - # 8
    frequency:   11.1784353680
  - # 9
    frequency:   11.8146002034

- q-position: [    0.4833333,    0.0333333,    0.0000000 ]
  distance:    0.1914374
  band:
  - # 1
    frequency:    4.6274532069
  - # 2
    frequency:    5.0269424068
  - # 3
    frequency:    6.7679766005
  - # 4
    frequency:    8.8788483055
  - # 5
    frequency:    9.6028991991
  - # 6
    frequency:   10.3151815847
  - # 7
    frequency:   10.5668598161
  - # 8
    frequency:   11.1757327123
  - # 9
    frequency:   11.8111663431

- q-position: [    0.4800000,    0.0400000,    0.0000000 ]
  distance:    0.1935273
  band:
  - # 1
    frequency:    4.6451425200
  - # 2
    frequency:    5.0277105044
  - # 3
    frequency:    6.7605679546
  - # 4
    frequency:    8.8868560675
  - # 5
    frequency:    9.6010299309
  - # 6
    frequency:   10.3095942606
  - # 7
    frequency:   10.5724684613
  - # 8
    frequency:   11.1724349451
  - # 9
    frequency:   11.8069926679

- q-position: [    0.4766667,    0.0466667,    0.0000000 ]
  distance:    0.1956171
  band:
  - # 1
    frequency:    4.6657479445
  - # 2
    frequency:    5.0286629600
  - # 3
    frequency:    6.7519619800
  - # 4
    frequency:    8.8962454532
  - # 5
    frequency:    9.5988241949
  - # 6
    frequency:   10.3031540685
  - # 7
    frequency:   10.5788976837
  - # 8
    frequency:   11.1685454503
  - # 9
    frequency:   11.8020931426

- q-position: [    0.4733333,    0.0533333,    0.0000000 ]
  distance:    0.1977070
  band:
  - # 1
    frequency:    4.6891232394
  - # 2
    frequency:    5.0298206129
  - # 3
    frequency:    6.7422341228
  - # 4
    frequency:    8.9069796728
  - # 5
    frequency:    9.5962844520
  - # 6
    frequency:   10.2959132178
  - # 7
    frequency:   10.5860780542
  - # 8
    frequency:   11.1640683152
  - # 9
    frequency:   11.7964842720

- q-position: [    0.4700000,    0.0600000,    0.0000000 ]
  distance:    0.1997969
  band:
  - # 1
    frequency:    4.7151023049
  - # 2
    frequency:    5.0312063862
  - # 3
    frequency:    6.7314719577
  - # 4
    frequency:    8.9190165056
  - # 5
    frequency:    9.5934141552
  - # 6
    frequency:   10.2879184282
  - # 7
    frequency:   10.5939436296
  - # 8
    frequency:   11.1590083750
  - # 9
    frequency:   11.7901850977

- q-position: [    0.4666667,    0.0666667,    0.0000000 ]
  distance:    0.2018868
  band:
  - # 1
    frequency:    4.7435000350
  - # 2
    frequency:    5.0328448444
  - # 3
    frequency:    6.7197754668
  - # 4
    frequency:    8.9323083341
  - # 5
    frequency:    9.5902180438
  - # 6
    frequency:   10.2792101961
  - # 7
    frequency:   10.6024329446
  - # 8
    frequency:   11.1533712640
  - # 9
    frequency:   11.7832171901

- q-position: [    0.4633333,    0.0733333,    0.0000000 ]
  distance:    0.2039766
  band:
  - # 1
    frequency:    4.7741131295
  - # 2
    frequency:    5.0347617162
  - # 3
    frequency:    6.7072573866
  - # 4
    frequency:    8.9468021388
  - # 5
    frequency:    9.5867025032
  - # 6
    frequency:   10.2698228937
  - # 7
    frequency:   10.6114891968
  - # 8
    frequency:   11.1471634739
  - # 9
    frequency:   11.7756046360

- q-position: [    0.4600000,    0.0800000,    0.0000000 ]
  distance:    0.2060665
  band:
  - # 1
    frequency:    4.8067208259
  - # 2
    frequency:    5.0369833899
  - # 3
    frequency:    6.6940436238
  - # 4
    frequency:    8.9624394304
  - # 5
    frequency:    9.5828760045
  - # 6
    frequency:   10.2597853967
  - # 7
    frequency:   10.6210599223
  - # 8
    frequency:   11.1403924200
  - # 9
    frequency:   11.7673740193

- q-position: [    0.4566667,    0.0866667,    0.0000000 ]
  distance:    0.2081564
  band:
  - # 1
    frequency:    4.8410855281
  - # 2
    frequency:    5.0395363896
  - # 3
    frequency:    6.6802737387
  - # 4
    frequency:    8.9791560935
  - # 5
    frequency:    9.5787496455
  - # 6
    frequency:   10.2491220024
  - # 7
    frequency:   10.6310964030