75   
3    

1    
  0.0060216212769652   0.0000000000000000   0.0079837382971137
  -0.1455059300   -0.0003035800   -0.2077403000
   0.0061452300    0.0062518900   -0.0056864700
   0.0007144900   -0.0000614300    0.0005953700
   0.0007052800    0.0000634600    0.0005825300
   0.0057927300   -0.0062083900   -0.0057642100
   0.0026913200    0.0044346200   -0.0056895200
   0.0027632200   -0.0042750100   -0.0057617600
   0.0003673800   -0.0004259000    0.0003952400
  -0.0000106700   -0.0000004000    0.0000276200
   0.0003656600    0.0004214600    0.0003933900
   0.0000628700   -0.0004369300    0.0005847500
   0.0011004900   -0.0000060600    0.0003944000
   0.0000676900    0.0004322600    0.0005932100
  -0.0000404900    0.0000166500    0.0000278800
  -0.0000401600   -0.0000176100    0.0000274500
   0.0000617000   -0.0003110700    0.0005911600
  -0.0000382400   -0.0000170300    0.0000285900
  -0.0000422500    0.0000171500    0.0000268200
   0.0000689300    0.0003083400    0.0005868300
   0.0011003500   -0.0000020100    0.0003943500
   0.0027780900   -0.0081598000   -0.0056506700
   0.0003663700    0.0004279100    0.0004027100
  -0.0000106100   -0.0000013900    0.0000276500
   0.0003668500   -0.0004193800    0.0003860000
   0.0026733700    0.0080458800   -0.0058005800
   0.0013259400   -0.0049001900    0.0169328000
  -0.0000949900   -0.0005873300   -0.0018448400
   0.0001703200    0.0000825000   -0.0028091700
   0.0008979600    0.0005497900   -0.0020844500
   0.0472526000   -0.0216232900    0.0494774800
  -0.0025361800   -0.0017093500   -0.0009900700
  -0.0002457400    0.0000225500   -0.0018912500
   0.0000311700    0.0000184100   -0.0026933900
  -0.0001216700    0.0000698900   -0.0025960700
   0.0002847200   -0.0008674300   -0.0020336200
   0.0001112400   -0.0001083600   -0.0027051900
  -0.0000937900   -0.0000994800   -0.0027664400
   0.0000872400    0.0000483300   -0.0027531900
  -0.0000006700   -0.0000886300   -0.0026446700
  -0.0000553400   -0.0001298500   -0.0028659000
  -0.0001510800    0.0001668800   -0.0026607300
  -0.0000039100    0.0000001600   -0.0026700700
  -0.0000730500    0.0001153700   -0.0028112100
   0.0005513300    0.0002647100   -0.0020070000
   0.0000837100    0.0006166600   -0.0019096300
  -0.0011878300   -0.0007864700   -0.0012796900
  -0.0002119000    0.0000532100   -0.0026911300
   0.0000716800   -0.0001257500   -0.0027802800
   0.0017728500    0.0024798600   -0.0007054200
   0.0098071700    0.0266453200    0.0333487700
   0.0491631900    0.0227231800    0.0567040400
   0.0009115200   -0.0005365700    0.0032975400
   0.0001727700   -0.0000834500    0.0025590400
  -0.0000695700    0.0005747900    0.0035327900
   0.0013653200    0.0048695100    0.0223793300
  -0.0025006200    0.0017084600    0.0043822100
   0.0002956100    0.0008564900    0.0033616300
  -0.0001220500   -0.0000705600    0.0027753400
   0.0000293800   -0.0000169800    0.0026786400
  -0.0002267900   -0.0000300200    0.0034645100
  -0.0000921400    0.0001008000    0.0026023400
   0.0001115200    0.0001096100    0.0026663700
  -0.0000568600    0.0001328500    0.0025008000
   0.0000000900    0.0000869400    0.0027268800
   0.0000878000   -0.0000487300    0.0026180600
  -0.0000719200   -0.0001176700    0.0025565700
  -0.0000045900    0.0000000600    0.0027001300
  -0.0001519700   -0.0001635200    0.0027124600
   0.0000982900   -0.0005977300    0.0034750800
   0.0005519000   -0.0002683700    0.0033425200
   0.0018115800   -0.0024977600    0.0046671000
   0.0000744600    0.0001275800    0.0025884300
  -0.0002087700   -0.0000556900    0.0026801700
  -0.0011467000    0.0007736000    0.0041017600
   0.0098030700   -0.0274579500    0.0393881800

26   
  0.0060216212769652   0.0000000000000000   0.0079837382971137
   0.0026721900   -0.0041286400    0.0186104700
   0.0479581900   -0.0220030300    0.0550454300
   0.0002780000   -0.0002190000    0.0010999500
   0.0001720400    0.0000869300   -0.0001235000
   0.0005543600    0.0002244700    0.0003575100
  -0.0000744900   -0.0014158400    0.0005673900
   0.0098360900    0.0259169000    0.0366215500
   0.0006725900    0.0018539800    0.0028316000
  -0.0001299600   -0.0001341900    0.0000567400
  -0.0000090900   -0.0000331300   -0.0001561900
  -0.0000107200    0.0000548200   -0.0000794300
   0.0003902300   -0.0007462300    0.0005595000
   0.0002565300    0.0004921100    0.0009007400
  -0.0002167200   -0.0000755200   -0.0000206800
  -0.0000052400   -0.0000000100    0.0000155800
   0.0000507300    0.0000482400    0.0000268500
  -0.0000600900   -0.0001339900   -0.0001781400
   0.0000005400    0.0000753900    0.0000432400
   0.0000913400    0.0000466200   -0.0000691900
  -0.0000335900    0.0001394500   -0.0001272800
  -0.0025327200   -0.0004321200    0.0016960300
  -0.0000496200    0.0004646600    0.0009293400
   0.0000183500   -0.0000102300   -0.0000150300
  -0.0001113000   -0.0000645400    0.0001007500
   0.0001007500   -0.0002156000    0.0005282200
  -0.0668965200    0.0002476100   -0.1161523600
   0.0033306300    0.0000598700   -0.0052979100
  -0.0000152100   -0.0000244700   -0.0029544600
  -0.0001873300   -0.0001088700   -0.0028215500
   0.0047812400    0.0003992100   -0.0063994700
   0.0006807200   -0.0029881800   -0.0062835200
   0.0003165000    0.0014549000   -0.0054252300
  -0.0000593800   -0.0000149300   -0.0027096700
   0.0000219600    0.0000049000   -0.0027745000
  -0.0001975700    0.0000943700   -0.0025881500
   0.0000161000    0.0002098700   -0.0028122200
  -0.0000330900    0.0000898900   -0.0026485100
  -0.0000125200    0.0000067800   -0.0029655700
   0.0000119300    0.0000057600   -0.0028176100
   0.0000040000   -0.0000103700   -0.0027308500
   0.0001026800   -0.0000248900   -0.0028783600
   0.0000664700    0.0000257200   -0.0027784300
  -0.0000504400    0.0000416600   -0.0027724600
  -0.0000992300   -0.0000593200   -0.0028987600
  -0.0000338000   -0.0000806400   -0.0026483800
  -0.0000771100   -0.0013516700   -0.0057305200
  -0.0000501500    0.0000095900   -0.0027007800
   0.0000218300   -0.0000676400   -0.0027754100
  -0.0002042000   -0.0000990600   -0.0025948500
   0.0010784300    0.0024198300   -0.0059737500
  -0.0016870900    0.0000006600    0.0169316000
   0.0023361700    0.0018943800    0.0039588000
   0.0000198100    0.0000624600    0.0027503800
   0.0000079800   -0.0001478200    0.0027402300
  -0.0003781800    0.0002196000    0.0018860500
  -0.0022501800    0.0005476700    0.0031022900
   0.0009378000    0.0007436400    0.0027324000
   0.0000935300    0.0000515200    0.0025428300
  -0.0000060600    0.0000406200    0.0027048300
   0.0000173800   -0.0000074000    0.0023748300
  -0.0000259800    0.0000888500    0.0027138900
   0.0000057100    0.0001310700    0.0024567100
  -0.0000949200   -0.0000355400    0.0027766200
   0.0000352700   -0.0000238800    0.0027285800
  -0.0000350300   -0.0000167200    0.0026812300
  -0.0000205500   -0.0001320100    0.0027190000
   0.0000321400    0.0000216400    0.0027317700
  -0.0000314900    0.0000145100    0.0026789200
  -0.0001004100    0.0001641400    0.0027715300
   0.0000044400   -0.0000431000    0.0024583200
  -0.0008936900   -0.0035047200    0.0041468100
   0.0001673600   -0.0000936700    0.0024838900
  -0.0000058500   -0.0000366700    0.0027051900
  -0.0000587200   -0.0000375900    0.0024309100
  -0.0004037800    0.0000669300    0.0017042100

26   
 -0.0060216212769652   0.0000000000000000  -0.0079837382971137
  -0.0025578600    0.0041765200   -0.0187891600
  -0.0459259100    0.0208795600   -0.0530512400
  -0.0002307400    0.0002198200   -0.0010958700
  -0.0001713400   -0.0000890200    0.0001256800
  -0.0005834700   -0.0002255500   -0.0003495500
   0.0000556500    0.0014167900   -0.0005931800
  -0.0097771800   -0.0252589100   -0.0361181800
  -0.0007073100   -0.0018506300   -0.0027936000
   0.0001268300    0.0001297500   -0.0000566100
   0.0000078800    0.0000332500    0.0001578800
   0.0000098800   -0.0000549700    0.0000805400
  -0.0004053700    0.0007572400   -0.0005447300
  -0.0002340400   -0.0004607400   -0.0008980000
   0.0002099000    0.0000768700    0.0000201300
   0.0000028400   -0.0000000100   -0.0000156700
  -0.0000511400   -0.0000469500   -0.0000269400
   0.0000604600    0.0001339000    0.0001793100
   0.0000006000   -0.0000731200   -0.0000399200
  -0.0000928100   -0.0000452400    0.0000715700
   0.0000306300   -0.0001382100    0.0001271300
   0.0025038100    0.0004405300   -0.0016971800
   0.0000581100   -0.0004852600   -0.0009193200
  -0.0000190700    0.0000113900    0.0000165400
   0.0001085100    0.0000623500   -0.0000971300
  -0.0001157400    0.0001951500   -0.0005262800
   0.0648475400    0.0002336600    0.1083102600
  -0.0032721500   -0.0000696400   -0.0001224100
   0.0000151600    0.0000253600   -0.0024189300
   0.0001928800    0.0001086600   -0.0025498100
  -0.0048285200   -0.0003962100    0.0010447900
  -0.0006816200    0.0029751900    0.0008958700
  -0.0003437300   -0.0014414400    0.0000152500
   0.0000575300    0.0000137800   -0.0026660200
  -0.0000213000   -0.0000043200   -0.0025964900
   0.0001979200   -0.0000952600   -0.0027830500
  -0.0000147600   -0.0002121700   -0.0025616700
   0.0000340100   -0.0000927100   -0.0027242200
   0.0000127300   -0.0000077100   -0.0024088800
  -0.0000116100   -0.0000056100   -0.0025517800
  -0.0000036200    0.0000102300   -0.0026407000
  -0.0001030500    0.0000236700   -0.0024959200
  -0.0000655900   -0.0000255000   -0.0025943600
   0.0000504000   -0.0000415000   -0.0026003700
   0.0001009500    0.0000614400   -0.0024740100
   0.0000333000    0.0000802400   -0.0027241400
   0.0000640900    0.0013416600    0.0003145200
   0.0000479500   -0.0000083300   -0.0026713800
  -0.0000214500    0.0000667900   -0.0025972500
   0.0002101300    0.0001014300   -0.0027755800
  -0.0010857100   -0.0024153800    0.0006009000
   0.0016509000    0.0000006100   -0.0113575600
  -0.0023243200   -0.0019028300    0.0014393600
  -0.0000187300   -0.0000619200    0.0026227700
  -0.0000061700    0.0001478700    0.0026309800
   0.0004048900   -0.0002415300    0.0034723400
   0.0022435000   -0.0005495600    0.0022714700
  -0.0009779800   -0.0007442200    0.0026302500
  -0.0000875100   -0.0000479700    0.0028274000
   0.0000069100   -0.0000404200    0.0026655200
  -0.0000187600    0.0000083700    0.0030008900
   0.0000262200   -0.0000898600    0.0026560800
  -0.0000030500   -0.0001302600    0.0029120000
   0.0000935700    0.0000363700    0.0025977200
  -0.0000347500    0.0000240200    0.0026416300
   0.0000352800    0.0000163700    0.0026896900
   0.0000195300    0.0001304100    0.0026520300
  -0.0000309200   -0.0000222300    0.0026396200
   0.0000317900   -0.0000144900    0.0026925100
   0.0001002300   -0.0001628600    0.0026017900
  -0.0000043300    0.0000405900    0.0029135900
   0.0008783900    0.0034490000    0.0012629300
  -0.0001675500    0.0000946300    0.0028845400
   0.0000071500    0.0000362600    0.0026658500
   0.0000590200    0.0000354800    0.0029408500
   0.0004020500   -0.0000426500    0.0036548700
