phonopy:
  version: 2.17.2
  frequency_unit_conversion_factor: 15.633302
  symmetry_tolerance: 1.00000e-05
  configuration:
    create_displacements: ".true."
    dim: "5 5 1"

physical_unit:
  atomic_mass: "AMU"
  length: "angstrom"
  force_constants: "eV/angstrom^2"

space_group:
  type: "P-6m2"
  number: 187
  Hall_symbol: "P -6 2"

supercell_matrix:
- [   5,   0,   0 ]
- [   0,   5,   0 ]
- [   0,   0,   1 ]

primitive_cell:
  lattice:
  - [     3.189990997285137,     0.000000000000000,     0.000000000000000 ] # a
  - [    -1.594995498642569,     2.762613241492585,     0.000000000000000 ] # b
  - [     0.000000000000000,     0.000000000000000,    21.147172929902730 ] # c
  points:
  - symbol: Mo # 1
    coordinates: [  0.000000000000000,  0.000000000000000,  0.500000000000000 ]
    mass: 95.960000
  - symbol: S  # 2
    coordinates: [  0.666666666666664,  0.333333333333336,  0.426217872663280 ]
    mass: 32.065000
  - symbol: S  # 3
    coordinates: [  0.666666666666664,  0.333333333333336,  0.573782127336720 ]
    mass: 32.065000
  reciprocal_lattice: # without 2pi
  - [     0.313480508519007,     0.180988055979150,     0.000000000000000 ] # a*
  - [     0.000000000000000,     0.361976111958299,     0.000000000000000 ] # b*
  - [     0.000000000000000,     0.000000000000000,     0.047287644703845 ] # c*

unit_cell:
  lattice:
  - [     3.189990997285137,     0.000000000000000,     0.000000000000000 ] # a
  - [    -1.594995498642569,     2.762613241492585,     0.000000000000000 ] # b
  - [     0.000000000000000,     0.000000000000000,    21.147172929902730 ] # c
  points:
  - symbol: Mo # 1
    coordinates: [  0.000000000000000, -0.000000000000000,  0.500000000000000 ]
    mass: 95.960000
    reduced_to: 1
  - symbol: S  # 2
    coordinates: [  0.666666666666664,  0.333333333333336,  0.426217872663280 ]
    mass: 32.065000
    reduced_to: 2
  - symbol: S  # 3
    coordinates: [  0.666666666666664,  0.333333333333336,  0.573782127336720 ]
    mass: 32.065000
    reduced_to: 3

supercell:
  lattice:
  - [    15.949954986425684,     0.000000000000000,     0.000000000000000 ] # a
  - [    -7.974977493212842,    13.813066207462922,     0.000000000000000 ] # b
  - [     0.000000000000000,     0.000000000000000,    21.147172929902730 ] # c
  points:
  - symbol: Mo # 1
    coordinates: [  0.000000000000000,  0.000000000000000,  0.500000000000000 ]
    mass: 95.960000
    reduced_to: 1
  - symbol: Mo # 2
    coordinates: [  0.200000000000000,  0.000000000000000,  0.500000000000000 ]
    mass: 95.960000
    reduced_to: 1
  - symbol: Mo # 3
    coordinates: [  0.400000000000000,  0.000000000000000,  0.500000000000000 ]
    mass: 95.960000
    reduced_to: 1
  - symbol: Mo # 4
    coordinates: [  0.600000000000000,  0.000000000000000,  0.500000000000000 ]
    mass: 95.960000
    reduced_to: 1
  - symbol: Mo # 5
    coordinates: [  0.800000000000000,  0.000000000000000,  0.500000000000000 ]
    mass: 95.960000
    reduced_to: 1
  - symbol: Mo # 6
    coordinates: [  0.000000000000000,  0.200000000000000,  0.500000000000000 ]
    mass: 95.960000
    reduced_to: 1
  - symbol: Mo # 7
    coordinates: [  0.200000000000000,  0.200000000000000,  0.500000000000000 ]
    mass: 95.960000
    reduced_to: 1
  - symbol: Mo # 8
    coordinates: [  0.400000000000000,  0.200000000000000,  0.500000000000000 ]
    mass: 95.960000
    reduced_to: 1
  - symbol: Mo # 9
    coordinates: [  0.600000000000000,  0.200000000000000,  0.500000000000000 ]
    mass: 95.960000
    reduced_to: 1
  - symbol: Mo # 10
    coordinates: [  0.800000000000000,  0.200000000000000,  0.500000000000000 ]
    mass: 95.960000
    reduced_to: 1
  - symbol: Mo # 11
    coordinates: [  0.000000000000000,  0.400000000000000,  0.500000000000000 ]
    mass: 95.960000
    reduced_to: 1
  - symbol: Mo # 12
    coordinates: [  0.200000000000000,  0.400000000000000,  0.500000000000000 ]
    mass: 95.960000
    reduced_to: 1
  - symbol: Mo # 13
    coordinates: [  0.400000000000000,  0.400000000000000,  0.500000000000000 ]
    mass: 95.960000
    reduced_to: 1
  - symbol: Mo # 14
    coordinates: [  0.600000000000000,  0.400000000000000,  0.500000000000000 ]
    mass: 95.960000
    reduced_to: 1
  - symbol: Mo # 15
    coordinates: [  0.800000000000000,  0.400000000000000,  0.500000000000000 ]
    mass: 95.960000
    reduced_to: 1
  - symbol: Mo # 16
    coordinates: [  0.000000000000000,  0.600000000000000,  0.500000000000000 ]
    mass: 95.960000
    reduced_to: 1
  - symbol: Mo # 17
    coordinates: [  0.200000000000000,  0.600000000000000,  0.500000000000000 ]
    mass: 95.960000
    reduced_to: 1
  - symbol: Mo # 18
    coordinates: [  0.400000000000000,  0.600000000000000,  0.500000000000000 ]
    mass: 95.960000
    reduced_to: 1
  - symbol: Mo # 19
    coordinates: [  0.600000000000000,  0.600000000000000,  0.500000000000000 ]
    mass: 95.960000
    reduced_to: 1
  - symbol: Mo # 20
    coordinates: [  0.800000000000000,  0.600000000000000,  0.500000000000000 ]
    mass: 95.960000
    reduced_to: 1
  - symbol: Mo # 21
    coordinates: [  0.000000000000000,  0.800000000000000,  0.500000000000000 ]
    mass: 95.960000
    reduced_to: 1
  - symbol: Mo # 22
    coordinates: [  0.200000000000000,  0.800000000000000,  0.500000000000000 ]
    mass: 95.960000
    reduced_to: 1
  - symbol: Mo # 23
    coordinates: [  0.400000000000000,  0.800000000000000,  0.500000000000000 ]
    mass: 95.960000
    reduced_to: 1
  - symbol: Mo # 24
    coordinates: [  0.600000000000000,  0.800000000000000,  0.500000000000000 ]
    mass: 95.960000
    reduced_to: 1
  - symbol: Mo # 25
    coordinates: [  0.800000000000000,  0.800000000000000,  0.500000000000000 ]
    mass: 95.960000
    reduced_to: 1
  - symbol: S  # 26
    coordinates: [  0.133333333333333,  0.066666666666667,  0.426217872663280 ]
    mass: 32.065000
    reduced_to: 26
  - symbol: S  # 27
    coordinates: [  0.333333333333333,  0.066666666666667,  0.426217872663280 ]
    mass: 32.065000
    reduced_to: 26
  - symbol: S  # 28
    coordinates: [  0.533333333333333,  0.066666666666667,  0.426217872663280 ]
    mass: 32.065000
    reduced_to: 26
  - symbol: S  # 29
    coordinates: [  0.733333333333333,  0.066666666666667,  0.426217872663280 ]
    mass: 32.065000
    reduced_to: 26
  - symbol: S  # 30
    coordinates: [  0.933333333333333,  0.066666666666667,  0.426217872663280 ]
    mass: 32.065000
    reduced_to: 26
  - symbol: S  # 31
    coordinates: [  0.133333333333333,  0.266666666666667,  0.426217872663280 ]
    mass: 32.065000
    reduced_to: 26
  - symbol: S  # 32
    coordinates: [  0.333333333333333,  0.266666666666667,  0.426217872663280 ]
    mass: 32.065000
    reduced_to: 26
  - symbol: S  # 33
    coordinates: [  0.533333333333333,  0.266666666666667,  0.426217872663280 ]
    mass: 32.065000
    reduced_to: 26
  - symbol: S  # 34
    coordinates: [  0.733333333333333,  0.266666666666667,  0.426217872663280 ]
    mass: 32.065000
    reduced_to: 26
  - symbol: S  # 35
    coordinates: [  0.933333333333333,  0.266666666666667,  0.426217872663280 ]
    mass: 32.065000
    reduced_to: 26
  - symbol: S  # 36
    coordinates: [  0.133333333333333,  0.466666666666667,  0.426217872663280 ]
    mass: 32.065000
    reduced_to: 26
  - symbol: S  # 37
    coordinates: [  0.333333333333333,  0.466666666666667,  0.426217872663280 ]
    mass: 32.065000
    reduced_to: 26
  - symbol: S  # 38
    coordinates: [  0.533333333333333,  0.466666666666667,  0.426217872663280 ]
    mass: 32.065000
    reduced_to: 26
  - symbol: S  # 39
    coordinates: [  0.733333333333333,  0.466666666666667,  0.426217872663280 ]
    mass: 32.065000
    reduced_to: 26
  - symbol: S  # 40
    coordinates: [  0.933333333333333,  0.466666666666667,  0.426217872663280 ]
    mass: 32.065000
    reduced_to: 26
  - symbol: S  # 41
    coordinates: [  0.133333333333333,  0.666666666666667,  0.426217872663280 ]
    mass: 32.065000
    reduced_to: 26
  - symbol: S  # 42
    coordinates: [  0.333333333333333,  0.666666666666667,  0.426217872663280 ]
    mass: 32.065000
    reduced_to: 26
  - symbol: S  # 43
    coordinates: [  0.533333333333333,  0.666666666666667,  0.426217872663280 ]
    mass: 32.065000
    reduced_to: 26
  - symbol: S  # 44
    coordinates: [  0.733333333333333,  0.666666666666667,  0.426217872663280 ]
    mass: 32.065000
    reduced_to: 26
  - symbol: S  # 45
    coordinates: [  0.933333333333333,  0.666666666666667,  0.426217872663280 ]
    mass: 32.065000
    reduced_to: 26
  - symbol: S  # 46
    coordinates: [  0.133333333333333,  0.866666666666667,  0.426217872663280 ]
    mass: 32.065000
    reduced_to: 26
  - symbol: S  # 47
    coordinates: [  0.333333333333333,  0.866666666666667,  0.426217872663280 ]
    mass: 32.065000
    reduced_to: 26
  - symbol: S  # 48
    coordinates: [  0.533333333333333,  0.866666666666667,  0.426217872663280 ]
    mass: 32.065000
    reduced_to: 26
  - symbol: S  # 49
    coordinates: [  0.733333333333333,  0.866666666666667,  0.426217872663280 ]
    mass: 32.065000
    reduced_to: 26
  - symbol: S  # 50
    coordinates: [  0.933333333333333,  0.866666666666667,  0.426217872663280 ]
    mass: 32.065000
    reduced_to: 26
  - symbol: S  # 51
    coordinates: [  0.133333333333333,  0.066666666666667,  0.573782127336720 ]
    mass: 32.065000
    reduced_to: 51
  - symbol: S  # 52
    coordinates: [  0.333333333333333,  0.066666666666667,  0.573782127336720 ]
    mass: 32.065000
    reduced_to: 51
  - symbol: S  # 53
    coordinates: [  0.533333333333333,  0.066666666666667,  0.573782127336720 ]
    mass: 32.065000
    reduced_to: 51
  - symbol: S  # 54
    coordinates: [  0.733333333333333,  0.066666666666667,  0.573782127336720 ]
    mass: 32.065000
    reduced_to: 51
  - symbol: S  # 55
    coordinates: [  0.933333333333333,  0.066666666666667,  0.573782127336720 ]
    mass: 32.065000
    reduced_to: 51
  - symbol: S  # 56
    coordinates: [  0.133333333333333,  0.266666666666667,  0.573782127336720 ]
    mass: 32.065000
    reduced_to: 51
  - symbol: S  # 57
    coordinates: [  0.333333333333333,  0.266666666666667,  0.573782127336720 ]
    mass: 32.065000
    reduced_to: 51
  - symbol: S  # 58
    coordinates: [  0.533333333333333,  0.266666666666667,  0.573782127336720 ]
    mass: 32.065000
    reduced_to: 51
  - symbol: S  # 59
    coordinates: [  0.733333333333333,  0.266666666666667,  0.573782127336720 ]
    mass: 32.065000
    reduced_to: 51
  - symbol: S  # 60
    coordinates: [  0.933333333333333,  0.266666666666667,  0.573782127336720 ]
    mass: 32.065000
    reduced_to: 51
  - symbol: S  # 61
    coordinates: [  0.133333333333333,  0.466666666666667,  0.573782127336720 ]
    mass: 32.065000
    reduced_to: 51
  - symbol: S  # 62
    coordinates: [  0.333333333333333,  0.466666666666667,  0.573782127336720 ]
    mass: 32.065000
    reduced_to: 51
  - symbol: S  # 63
    coordinates: [  0.533333333333333,  0.466666666666667,  0.573782127336720 ]
    mass: 32.065000
    reduced_to: 51
  - symbol: S  # 64
    coordinates: [  0.733333333333333,  0.466666666666667,  0.573782127336720 ]
    mass: 32.065000
    reduced_to: 51
  - symbol: S  # 65
    coordinates: [  0.933333333333333,  0.466666666666667,  0.573782127336720 ]
    mass: 32.065000
    reduced_to: 51
  - symbol: S  # 66
    coordinates: [  0.133333333333333,  0.666666666666667,  0.573782127336720 ]
    mass: 32.065000
    reduced_to: 51
  - symbol: S  # 67
    coordinates: [  0.333333333333333,  0.666666666666667,  0.573782127336720 ]
    mass: 32.065000
    reduced_to: 51
  - symbol: S  # 68
    coordinates: [  0.533333333333333,  0.666666666666667,  0.573782127336720 ]
    mass: 32.065000
    reduced_to: 51
  - symbol: S  # 69
    coordinates: [  0.733333333333333,  0.666666666666667,  0.573782127336720 ]
    mass: 32.065000
    reduced_to: 51
  - symbol: S  # 70
    coordinates: [  0.933333333333333,  0.666666666666667,  0.573782127336720 ]
    mass: 32.065000
    reduced_to: 51
  - symbol: S  # 71
    coordinates: [  0.133333333333333,  0.866666666666667,  0.573782127336720 ]
    mass: 32.065000
    reduced_to: 51
  - symbol: S  # 72
    coordinates: [  0.333333333333333,  0.866666666666667,  0.573782127336720 ]
    mass: 32.065000
    reduced_to: 51
  - symbol: S  # 73
    coordinates: [  0.533333333333333,  0.866666666666667,  0.573782127336720 ]
    mass: 32.065000
    reduced_to: 51
  - symbol: S  # 74
    coordinates: [  0.733333333333333,  0.866666666666667,  0.573782127336720 ]
    mass: 32.065000
    reduced_to: 51
  - symbol: S  # 75
    coordinates: [  0.933333333333333,  0.866666666666667,  0.573782127336720 ]
    mass: 32.065000
    reduced_to: 51

displacements:
- atom:    1
  displacement:
    [   0.0060216212769652,  0.0000000000000000,  0.0079837382971137 ]
- atom:   26
  displacement:
    [   0.0060216212769652,  0.0000000000000000,  0.0079837382971137 ]
- atom:   26
  displacement:
    [  -0.0060216212769652,  0.0000000000000000, -0.0079837382971137 ]
