<?xml version="1.0" encoding="ISO-8859-1"?>
<modeling>
 <generator>
  <i name="program" type="string">vasp </i>
  <i name="version" type="string">5.4.4.18Apr17-6-g9f103f2a35  </i>
  <i name="subversion" type="string">(build Oct 18 2020 22:16:12) gamma-only         parallel </i>
  <i name="platform" type="string">UA-vaughan-2020a </i>
  <i name="date" type="string">2023 03 21 </i>
  <i name="time" type="string">22:26:22 </i>
 </generator>
 <incar>
  <i type="string" name="PREC">accurate</i>
  <i type="int" name="IALGO">    38</i>
  <i type="logical" name="ADDGRID"> T  </i>
  <i type="int" name="NELMIN">     5</i>
  <i type="int" name="IBRION">    -1</i>
  <i name="EDIFF">      0.00000001</i>
  <i name="EDIFFG">     -0.00000001</i>
  <i type="int" name="NSW">     0</i>
  <i type="int" name="ISIF">     2</i>
  <i name="ENCUT">    500.00000000</i>
  <i type="logical" name="LREAL"> F  </i>
  <i type="int" name="ISMEAR">     0</i>
  <i name="SIGMA">      0.01000000</i>
  <i type="logical" name="LWAVE"> F  </i>
  <i type="logical" name="LCHARG"> F  </i>
  <v type="int" name="KPOINT_BSE">    -1     0     0     0</v>
 </incar>
 <structure name="primitive_cell" >
  <crystal>
   <varray name="basis" >
    <v>      17.59966831       0.00000000       0.00000000 </v>
    <v>      -8.79983416      15.24175986       0.00000000 </v>
    <v>       0.00000000       0.00000000      19.92151445 </v>
   </varray>
   <i name="volume">   5343.94461817 </i>
   <varray name="rec_basis" >
    <v>       0.05681925       0.03280461       0.00000000 </v>
    <v>       0.00000000       0.06560922       0.00000000 </v>
    <v>       0.00000000       0.00000000       0.05019699 </v>
   </varray>
  </crystal>
  <varray name="positions" >
   <v>      -0.00056990       0.00005992      -0.50000000 </v>
   <v>      -0.09559153      -0.04686260      -0.50000000 </v>
   <v>       0.04629157      -0.04845614      -0.50000000 </v>
   <v>       0.04754270       0.09547788      -0.50000000 </v>
   <v>      -0.14173506       0.00214292      -0.50000000 </v>
   <v>       0.14259355       0.14244783      -0.50000000 </v>
   <v>       0.14164706      -0.00128105      -0.50000000 </v>
   <v>      -0.00222825      -0.14386507      -0.50000000 </v>
   <v>      -0.14440994      -0.14241310      -0.50000000 </v>
   <v>       0.00080792       0.14408264      -0.50000000 </v>
   <v>       0.18957833       0.09405657      -0.50000000 </v>
   <v>      -0.09417874       0.09719274      -0.50000000 </v>
   <v>      -0.09804946      -0.19102931      -0.50000000 </v>
   <v>      -0.23644228      -0.04431313      -0.50000000 </v>
   <v>      -0.23937155      -0.18870526      -0.50000000 </v>
   <v>       0.19048138       0.23782962      -0.50000000 </v>
   <v>       0.04582562      -0.19120635      -0.50000000 </v>
   <v>       0.18948291      -0.04886963      -0.50000000 </v>
   <v>       0.04854983       0.23934281      -0.50000000 </v>
   <v>      -0.28359367      -0.13861590      -0.50000000 </v>
   <v>       0.28470221       0.14112972      -0.50000000 </v>
   <v>      -0.14194737       0.14467669      -0.50000000 </v>
   <v>      -0.14938794      -0.28617460      -0.50000000 </v>
   <v>       0.14160898      -0.14408712      -0.50000000 </v>
   <v>       0.14372552       0.28645370      -0.50000000 </v>
   <v>      -0.28469345       0.00214292      -0.50000000 </v>
   <v>      -0.00292766      -0.28629482      -0.50000000 </v>
   <v>       0.28540977       0.28469374      -0.50000000 </v>
   <v>       0.00095476       0.28713011      -0.50000000 </v>
   <v>       0.28492260      -0.00158337      -0.50000000 </v>
   <v>      -0.29741032      -0.28373063      -0.50000000 </v>
   <v>      -0.09946280      -0.33311206      -0.50000000 </v>
   <v>       0.33234878       0.23634667      -0.50000000 </v>
   <v>      -0.23719996       0.09719274      -0.50000000 </v>
   <v>       0.33254182       0.09365506      -0.50000000 </v>
   <v>      -0.09437203       0.23982737      -0.50000000 </v>
   <v>      -0.24762082      -0.33289240      -0.50000000 </v>
   <v>      -0.37790513      -0.18870526      -0.50000000 </v>
   <v>       0.19188940       0.38184213      -0.50000000 </v>
   <v>       0.19009580      -0.19123697      -0.50000000 </v>
   <v>      -0.37984249      -0.04686260      -0.50000000 </v>
   <v>       0.04642473      -0.33314772      -0.50000000 </v>
   <v>       0.33352206       0.38013969      -0.50000000 </v>
   <v>       0.04871288       0.38232824      -0.50000000 </v>
   <v>       0.33307603      -0.04886963      -0.50000000 </v>
   <v>      -0.41489174      -0.28373063      -0.50000000 </v>
   <v>      -0.42657459      -0.14298129      -0.50000000 </v>
   <v>       0.42724431       0.28306005      -0.50000000 </v>
   <v>      -0.14538305      -0.42818375      -0.50000000 </v>
   <v>      -0.28529671       0.14408264      -0.50000000 </v>
   <v>      -0.28954788      -0.42784436      -0.50000000 </v>
   <v>       0.42785608       0.14112972      -0.50000000 </v>
   <v>      -0.14239608       0.28713011      -0.50000000 </v>
   <v>       0.14422690       0.42957551      -0.50000000 </v>
   <v>       0.28730213       0.42918005      -0.50000000 </v>
   <v>       0.14255519      -0.28631818      -0.50000000 </v>
   <v>       0.28573247      -0.14408712      -0.50000000 </v>
   <v>      -0.24098231      -0.47544567      -0.50000000 </v>
   <v>       0.47542646       0.23634667      -0.50000000 </v>
   <v>      -0.23777845       0.23934281      -0.50000000 </v>
   <v>       0.42797654       0.42569726      -0.50000000 </v>
   <v>      -0.42794161       0.00005992      -0.50000000 </v>
   <v>      -0.00071745      -0.42818538      -0.50000000 </v>
   <v>       0.00054479       0.42966101      -0.50000000 </v>
   <v>       0.42850047      -0.00128105      -0.50000000 </v>
   <v>      -0.43169127      -0.43481112      -0.50000000 </v>
   <v>       0.47472270       0.37801683      -0.50000000 </v>
   <v>      -0.09644208      -0.47523136      -0.50000000 </v>
   <v>      -0.38063624       0.09547788      -0.50000000 </v>
   <v>       0.47590681       0.09405657      -0.50000000 </v>
   <v>      -0.09495607       0.38232824      -0.50000000 </v>
   <v>      -0.38544126      -0.47853279      -0.50000000 </v>
   <v>       0.48615700      -0.33289240      -0.50000000 </v>
   <v>       0.47844872      -0.19102931      -0.50000000 </v>
   <v>       0.19263929      -0.47523136      -0.50000000 </v>
   <v>       0.33696521      -0.47544567      -0.50000000 </v>
   <v>       0.19185612      -0.33314772      -0.50000000 </v>
   <v>       0.33439660      -0.19120635      -0.50000000 </v>
   <v>       0.43464191      -0.28617460      -0.50000000 </v>
   <v>      -0.28669350       0.42918005      -0.50000000 </v>
   <v>      -0.42928746       0.28469374      -0.50000000 </v>
   <v>      -0.28584326       0.28645370      -0.50000000 </v>
   <v>       0.28862787      -0.42818375      -0.50000000 </v>
   <v>       0.28806142      -0.28629482      -0.50000000 </v>
   <v>       0.47668087      -0.04845614      -0.50000000 </v>
   <v>       0.47833704      -0.47853279      -0.50000000 </v>
   <v>       0.04810654      -0.47521548      -0.50000000 </v>
   <v>       0.43313209      -0.42784436      -0.50000000 </v>
   <v>       0.42979175      -0.14386507      -0.50000000 </v>
   <v>      -0.43085070       0.42569726      -0.50000000 </v>
   <v>      -0.14322281       0.42957551      -0.50000000 </v>
   <v>      -0.42871714       0.14244783      -0.50000000 </v>
   <v>       0.14396064      -0.42818538      -0.50000000 </v>
   <v>      -0.23861870       0.38184213      -0.50000000 </v>
   <v>      -0.38122319       0.23782962      -0.50000000 </v>
   <v>      -0.38195380       0.38013969      -0.50000000 </v>
   <v>       0.33777931      -0.33311206      -0.50000000 </v>
  </varray>
 </structure>
 <varray name="primitive_index" >
  <v type="int" >        1 </v>
  <v type="int" >       96 </v>
  <v type="int" >       90 </v>
  <v type="int" >       49 </v>
  <v type="int" >        7 </v>
  <v type="int" >        9 </v>
  <v type="int" >        2 </v>
  <v type="int" >       42 </v>
  <v type="int" >       48 </v>
  <v type="int" >        8 </v>
  <v type="int" >       50 </v>
  <v type="int" >       55 </v>
  <v type="int" >       89 </v>
  <v type="int" >       95 </v>
  <v type="int" >       88 </v>
  <v type="int" >       57 </v>
  <v type="int" >       83 </v>
  <v type="int" >       91 </v>
  <v type="int" >       56 </v>
  <v type="int" >       47 </v>
  <v type="int" >       10 </v>
  <v type="int" >       14 </v>
  <v type="int" >       41 </v>
  <v type="int" >       43 </v>
  <v type="int" >       16 </v>
  <v type="int" >        6 </v>
  <v type="int" >       35 </v>
  <v type="int" >       17 </v>
  <v type="int" >       15 </v>
  <v type="int" >        3 </v>
  <v type="int" >       40 </v>
  <v type="int" >       82 </v>
  <v type="int" >       58 </v>
  <v type="int" >       54 </v>
  <v type="int" >       51 </v>
  <v type="int" >       62 </v>
  <v type="int" >       81 </v>
  <v type="int" >       87 </v>
  <v type="int" >       64 </v>
  <v type="int" >       84 </v>
  <v type="int" >       94 </v>
  <v type="int" >       77 </v>
  <v type="int" >       65 </v>
  <v type="int" >       63 </v>
  <v type="int" >       92 </v>
  <v type="int" >       39 </v>
  <v type="int" >       46 </v>
  <v type="int" >       18 </v>
  <v type="int" >       34 </v>
  <v type="int" >       13 </v>
  <v type="int" >       33 </v>
  <v type="int" >       11 </v>
  <v type="int" >       21 </v>
  <v type="int" >       23 </v>
  <v type="int" >       24 </v>
  <v type="int" >       36 </v>
  <v type="int" >       44 </v>
  <v type="int" >       75 </v>
  <v type="int" >       59 </v>
  <v type="int" >       61 </v>
  <v type="int" >       25 </v>
  <v type="int" >        5 </v>
  <v type="int" >       29 </v>
  <v type="int" >       22 </v>
  <v type="int" >        4 </v>
  <v type="int" >       97 </v>
  <v type="int" >       66 </v>
  <v type="int" >       76 </v>
  <v type="int" >       53 </v>
  <v type="int" >       52 </v>
  <v type="int" >       69 </v>
  <v type="int" >       74 </v>
  <v type="int" >       80 </v>
  <v type="int" >       86 </v>
  <v type="int" >       71 </v>
  <v type="int" >       72 </v>
  <v type="int" >       78 </v>
  <v type="int" >       85 </v>
  <v type="int" >       38 </v>
  <v type="int" >       27 </v>
  <v type="int" >       19 </v>
  <v type="int" >       20 </v>
  <v type="int" >       31 </v>
  <v type="int" >       37 </v>
  <v type="int" >       93 </v>
  <v type="int" >       73 </v>
  <v type="int" >       70 </v>
  <v type="int" >       32 </v>
  <v type="int" >       45 </v>
  <v type="int" >       26 </v>
  <v type="int" >       28 </v>
  <v type="int" >       12 </v>
  <v type="int" >       30 </v>
  <v type="int" >       68 </v>
  <v type="int" >       60 </v>
  <v type="int" >       67 </v>
  <v type="int" >       79 </v>
 </varray>
 <kpoints>
  <generation param="Gamma">
   <v type="int" name="divisions">       1        1        1 </v>
   <v name="usershift">      0.00000000       0.00000000       0.00000000 </v>
   <v name="genvec1">      1.00000000      -0.00000000       0.00000000 </v>
   <v name="genvec2">      0.00000000       1.00000000       0.00000000 </v>
   <v name="genvec3">      0.00000000       0.00000000       1.00000000 </v>
   <v name="shift">      0.00000000       0.00000000       0.00000000 </v>
  </generation>
  <varray name="kpointlist" >
   <v>       0.00000000       0.00000000       0.00000000 </v>
  </varray>
  <varray name="weights" >
   <v>       1.00000000 </v>
  </varray>
 </kpoints>
 <parameters>
  <separator name="general" >
   <i type="string" name="SYSTEM">unknown system</i>
   <i type="logical" name="LCOMPAT"> F  </i>
  </separator>
  <separator name="electronic" >
   <i type="string" name="PREC">accura</i>
   <i name="ENMAX">    500.00000000</i>
   <i name="ENAUG">    644.87300000</i>
   <i name="EDIFF">      0.00000001</i>
   <i type="int" name="IALGO">    38</i>
   <i type="int" name="IWAVPR">    10</i>
   <i type="int" name="NBANDS">   244</i>
   <i name="NELECT">    388.00000000</i>
   <i type="int" name="TURBO">     0</i>
   <i type="int" name="IRESTART">     0</i>
   <i type="int" name="NREBOOT">     0</i>
   <i type="int" name="NMIN">     0</i>
   <i name="EREF">      0.00000000</i>
   <separator name="electronic smearing" >
    <i type="int" name="ISMEAR">     0</i>
    <i name="SIGMA">      0.01000000</i>
    <i name="KSPACING">      0.50000000</i>
    <i type="logical" name="KGAMMA"> T  </i>
   </separator>
   <separator name="electronic projectors" >
    <i type="logical" name="LREAL"> F  </i>
    <v name="ROPT">      0.00000000      0.00000000      0.00000000</v>
    <i type="int" name="LMAXPAW">  -100</i>
    <i type="int" name="LMAXMIX">     2</i>
    <i type="logical" name="NLSPLINE"> F  </i>
   </separator>
   <separator name="electronic startup" >
    <i type="int" name="ISTART">     0</i>
    <i type="int" name="ICHARG">     2</i>
    <i type="int" name="INIWAV">     1</i>
   </separator>
   <separator name="electronic spin" >
    <i type="int" name="ISPIN">     1</i>
    <i type="logical" name="LNONCOLLINEAR"> F  </i>
    <v name="MAGMOM">      1.00000000      1.00000000      1.00000000      1.00000000      1.00000000      1.00000000      1.00000000      1.00000000      1.00000000      1.00000000      1.00000000      1.00000000      1.00000000      1.00000000      1.00000000      1.00000000      1.00000000      1.00000000      1.00000000      1.00000000
      1.00000000      1.00000000      1.00000000      1.00000000      1.00000000      1.00000000      1.00000000      1.00000000      1.00000000      1.00000000      1.00000000      1.00000000      1.00000000      1.00000000      1.00000000      1.00000000      1.00000000      1.00000000      1.00000000      1.00000000
      1.00000000      1.00000000      1.00000000      1.00000000      1.00000000      1.00000000      1.00000000      1.00000000      1.00000000      1.00000000      1.00000000      1.00000000      1.00000000      1.00000000      1.00000000      1.00000000      1.00000000      1.00000000      1.00000000      1.00000000
      1.00000000      1.00000000      1.00000000      1.00000000      1.00000000      1.00000000      1.00000000      1.00000000      1.00000000      1.00000000      1.00000000      1.00000000      1.00000000      1.00000000      1.00000000      1.00000000      1.00000000      1.00000000      1.00000000      1.00000000
      1.00000000      1.00000000      1.00000000      1.00000000      1.00000000      1.00000000      1.00000000      1.00000000      1.00000000      1.00000000      1.00000000      1.00000000      1.00000000      1.00000000      1.00000000      1.00000000      1.00000000</v>
    <i name="NUPDOWN">     -1.00000000</i>
    <i type="logical" name="LSORBIT"> F  </i>
    <v name="SAXIS">      0.00000000      0.00000000      1.00000000</v>
    <i type="logical" name="LSPIRAL"> F  </i>
    <v name="QSPIRAL">      0.00000000      0.00000000      0.00000000</v>
    <i type="logical" name="LZEROZ"> F  </i>
   </separator>
   <separator name="electronic exchange-correlation" >
    <i type="logical" name="LASPH"> F  </i>
    <i type="logical" name="LMETAGGA"> F  </i>
   </separator>
   <separator name="electronic convergence" >
    <i type="int" name="NELM">    60</i>
    <i type="int" name="NELMDL">    -5</i>
    <i type="int" name="NELMIN">     5</i>
    <i name="ENINI">    500.00000000</i>
    <separator name="electronic convergence detail" >
     <i type="logical" name="LDIAG"> T  </i>
     <i type="logical" name="LSUBROT"> F  </i>
     <i name="WEIMIN">      0.00000000</i>
     <i name="EBREAK">      0.00000000</i>
     <i name="DEPER">      0.30000000</i>
     <i type="int" name="NRMM">     4</i>
     <i name="TIME">      0.40000000</i>
    </separator>
   </separator>
   <separator name="electronic mixer" >
    <i name="AMIX">      0.40000000</i>
    <i name="BMIX">      1.00000000</i>
    <i name="AMIN">      0.10000000</i>
    <i name="AMIX_MAG">      1.60000000</i>
    <i name="BMIX_MAG">      1.00000000</i>
    <separator name="electronic mixer details" >
     <i type="int" name="IMIX">     4</i>
     <i type="logical" name="MIXFIRST"> F  </i>
     <i type="int" name="MAXMIX">   -45</i>
     <i name="WC">    100.00000000</i>
     <i type="int" name="INIMIX">     1</i>
     <i type="int" name="MIXPRE">     1</i>
     <i type="int" name="MREMOVE">     5</i>
    </separator>
   </separator>
   <separator name="electronic dipolcorrection" >
    <i type="logical" name="LDIPOL"> F  </i>
    <i type="logical" name="LMONO"> F  </i>
    <i type="int" name="IDIPOL">     0</i>
    <i name="EPSILON">      1.00000000</i>
    <v name="DIPOL">   -100.00000000   -100.00000000   -100.00000000</v>
    <i name="EFIELD">      0.00000000</i>
   </separator>
  </separator>
  <separator name="grids" >
   <i type="int" name="NGX">   128</i>
   <i type="int" name="NGY">   128</i>
   <i type="int" name="NGZ">   150</i>
   <i type="int" name="NGXF">   256</i>
   <i type="int" name="NGYF">   256</i>
   <i type="int" name="NGZF">   300</i>
   <i type="logical" name="ADDGRID"> T  </i>
  </separator>
  <separator name="ionic" >
   <i type="int" name="NSW">     0</i>
   <i type="int" name="IBRION">    -1</i>
   <i type="int" name="MDALGO">     0</i>
   <i type="int" name="ISIF">     2</i>
   <i name="PSTRESS">      0.00000000</i>
   <i name="EDIFFG">     -0.00000001</i>
   <i type="int" name="NFREE">     0</i>
   <i name="POTIM">      0.50000000</i>
   <i name="SMASS">     -3.00000000</i>
   <i name="SCALEE">      1.00000000</i>
  </separator>
  <separator name="ionic md" >
   <i name="TEBEG">      0.00010000</i>
   <i name="TEEND">      0.00010000</i>
   <i type="int" name="NBLOCK">     1</i>
   <i type="int" name="KBLOCK">     1</i>
   <i type="int" name="NPACO">   256</i>
   <i name="APACO">     16.00000000</i>
  </separator>
  <separator name="symmetry" >
   <i type="int" name="ISYM">     2</i>
   <i name="SYMPREC">      0.00001000</i>
  </separator>
  <separator name="dos" >
   <i type="int" name="LORBIT">     0</i>
   <v name="RWIGS">     -1.00000000     -1.00000000     -1.00000000</v>
   <i type="int" name="NEDOS">   301</i>
   <i name="EMIN">     10.00000000</i>
   <i name="EMAX">    -10.00000000</i>
   <i name="EFERMI">      0.00000000</i>
  </separator>
  <separator name="writing" >
   <i type="int" name="NWRITE">     2</i>
   <i type="logical" name="LWAVE"> F  </i>
   <i type="logical" name="LDOWNSAMPLE"> F  </i>
   <i type="logical" name="LCHARG"> F  </i>
   <i type="logical" name="LPARD"> F  </i>
   <i type="logical" name="LVTOT"> F  </i>
   <i type="logical" name="LVHAR"> F  </i>
   <i type="logical" name="LELF"> F  </i>
   <i type="logical" name="LOPTICS"> F  </i>
   <v name="STM">      0.00000000      0.00000000      0.00000000      0.00000000      0.00000000      0.00000000      0.00000000</v>
  </separator>
  <separator name="performance" >
   <i type="int" name="NPAR">     4</i>
   <i type="int" name="NSIM">     4</i>
   <i type="int" name="NBLK">    -1</i>
   <i type="logical" name="LPLANE"> T  </i>
   <i type="logical" name="LSCALAPACK"> T  </i>
   <i type="logical" name="LSCAAWARE"> F  </i>
   <i type="logical" name="LSCALU"> F  </i>
   <i type="logical" name="LASYNC"> F  </i>
   <i type="logical" name="LORBITALREAL"> F  </i>
  </separator>
  <separator name="miscellaneous" >
   <i type="int" name="IDIOT">     3</i>
   <i type="int" name="ISPECIAL">     0</i>
   <i type="logical" name="LMUSIC"> F  </i>
   <v name="POMASS">     10.81100000     14.00100000     12.01100000</v>
   <v name="DARWINR">      0.00000000      0.00000000      0.00000000</v>
   <v name="DARWINV">      1.00000000      1.00000000      1.00000000</v>
   <i type="logical" name="LCORR"> T  </i>
  </separator>
  <i type="logical" name="GGA_COMPAT"> T  </i>
  <i type="logical" name="LBERRY"> F  </i>
  <i type="int" name="ICORELEVEL">     0</i>
  <i type="logical" name="LDAU"> F  </i>
  <i type="int" name="I_CONSTRAINED_M">     0</i>
  <separator name="electronic exchange-correlation" >
   <i type="string" name="GGA">--</i>
   <i type="int" name="VOSKOWN">     0</i>
   <i type="logical" name="LHFCALC"> F  </i>
   <i type="string" name="PRECFOCK"></i>
   <i type="logical" name="LSYMGRAD"> F  </i>
   <i type="logical" name="LHFONE"> F  </i>
   <i type="logical" name="LRHFCALC"> F  </i>
   <i type="logical" name="LTHOMAS"> F  </i>
   <i type="logical" name="LMODELHF"> F  </i>
   <i name="ENCUT4O">     -1.00000000</i>
   <i type="int" name="EXXOEP">     0</i>
   <i type="int" name="FOURORBIT">     0</i>
   <i name="AEXX">      0.00000000</i>
   <i name="HFALPHA">      0.00000000</i>
   <i name="MCALPHA">      0.00000000</i>
   <i name="ALDAX">      1.00000000</i>
   <i name="AGGAX">      1.00000000</i>
   <i name="ALDAC">      1.00000000</i>
   <i name="AGGAC">      1.00000000</i>
   <i type="int" name="NKREDX">     1</i>
   <i type="int" name="NKREDY">     1</i>
   <i type="int" name="NKREDZ">     1</i>
   <i type="logical" name="SHIFTRED"> F  </i>
   <i type="logical" name="ODDONLY"> F  </i>
   <i type="logical" name="EVENONLY"> F  </i>
   <i type="int" name="LMAXFOCK">     0</i>
   <i type="int" name="NMAXFOCKAE">     0</i>
   <i type="logical" name="LFOCKAEDFT"> F  </i>
   <i name="HFSCREEN">      0.00000000</i>
   <i name="HFSCREENC">      0.00000000</i>
   <i type="int" name="NBANDSGWLOW">     0</i>
  </separator>
  <separator name="vdW DFT" >
   <i type="logical" name="LUSE_VDW"> F  </i>
   <i name="Zab_VDW">     -0.84910000</i>
   <i name="PARAM1">      0.12340000</i>
   <i name="PARAM2">      1.00000000</i>
   <i name="PARAM3">      0.00000000</i>
  </separator>
  <separator name="model GW" >
   <i type="int" name="MODEL_GW">     0</i>
   <i name="MODEL_EPS0">     33.05532754</i>
   <i name="MODEL_ALPHA">      1.00000000</i>
  </separator>
  <separator name="linear response parameters" >
   <i type="logical" name="LEPSILON"> F  </i>
   <i type="logical" name="LRPA"> F  </i>
   <i type="logical" name="LNABLA"> F  </i>
   <i type="logical" name="LVEL"> F  </i>
   <i type="int" name="KINTER">     0</i>
   <i name="CSHIFT">      0.10000000</i>
   <i name="OMEGAMAX">     -1.00000000</i>
   <i name="DEG_THRESHOLD">      0.00200000</i>
   <i name="RTIME">     -0.10000000</i>
   <i name="WPLASMAI">      0.00000000</i>
   <v name="DFIELD">      0.00000000      0.00000000      0.00000000</v>
   <v name="WPLASMA">      0.00000000      0.00000000      0.00000000      0.00000000      0.00000000      0.00000000      0.00000000      0.00000000      0.00000000</v>
  </separator>
  <separator name="orbital magnetization" >
   <i type="logical" name="NUCIND"> F  </i>
   <v name="MAGPOS">      0.00000000      0.00000000      0.00000000</v>
   <i type="logical" name="LNICSALL"> T  </i>
   <i type="logical" name="ORBITALMAG"> F  </i>
   <i type="logical" name="LMAGBLOCH"> F  </i>
   <i type="logical" name="LCHIMAG"> F  </i>
   <i type="logical" name="LGAUGE"> T  </i>
   <i type="int" name="MAGATOM">     0</i>
   <v name="MAGDIPOL">      0.00000000      0.00000000      0.00000000</v>
   <v name="AVECCONST">      0.00000000      0.00000000      0.00000000</v>
  </separator>
  <separator name="response functions" >
   <i type="logical" name="LADDER"> F  </i>
   <i type="logical" name="LRPAFORCE"> F  </i>
   <i type="logical" name="LFXC"> F  </i>
   <i type="logical" name="LHARTREE"> T  </i>
   <i type="int" name="IBSE">     0</i>
   <v type="int" name="KPOINT">    -1     0     0     0</v>
   <i type="logical" name="LTCTE"> F  </i>
   <i type="logical" name="LTETE"> F  </i>
   <i type="logical" name="LTRIPLET"> F  </i>
   <i type="logical" name="LFXCEPS"> F  </i>
   <i type="logical" name="LFXHEG"> F  </i>
   <i type="int" name="NATURALO">     2</i>
   <i type="logical" name="L2ORDER"> F  </i>
   <i type="logical" name="LMP2LT"> F  </i>
   <i type="logical" name="LUSEW"> F  </i>
   <i name="ENCUTGW">     -2.00000000</i>
   <i name="ENCUTGWSOFT">     -2.00000000</i>
   <i name="ENCUTLF">     -1.00000000</i>
   <i type="int" name="LMAXMP2">    -1</i>
   <i name="SCISSOR">      0.00000000</i>
   <i type="int" name="NOMEGA">     0</i>
   <i type="int" name="NOMEGAR">     0</i>
   <i type="int" name="NBANDSGW">    -1</i>
   <i type="int" name="NBANDSO">    -1</i>
   <i type="int" name="NBANDSV">    -1</i>
   <i type="int" name="NELM">     1</i>
   <i type="int" name="NELMHF">     1</i>
   <i type="int" name="DIM">     3</i>
   <i type="int" name="ANTIRES">     0</i>
   <i name="OMEGAMAX">    -30.00000000</i>
   <i name="OMEGAMIN">    -30.00000000</i>
   <i name="OMEGATL">   -200.00000000</i>
   <i type="int" name="OMEGAGRID">   140</i>
   <i name="CSHIFT">     -0.10000000</i>
   <i type="logical" name="SELFENERGY"> F  </i>
   <i type="logical" name="LSPECTRAL"> F  </i>
   <i type="logical" name="LSPECTRALGW"> F  </i>
   <i type="logical" name="LSINGLES"> F  </i>
   <i type="logical" name="LFERMIGW"> F  </i>
   <i type="logical" name="ODDONLYGW"> F  </i>
   <i type="logical" name="EVENONLYGW"> F  </i>
   <i type="int" name="NKREDLFX">     1</i>
   <i type="int" name="NKREDLFY">     1</i>
   <i type="int" name="NKREDLFZ">     1</i>
   <i type="int" name="MAXMEM">  2800</i>
   <i type="int" name="TELESCOPE">     0</i>
   <i type="int" name="TAUPAR">     1</i>
   <i type="int" name="OMEGAPAR">    -1</i>
   <i name="LAMBDA">      1.00000000</i>
  </separator>
  <separator name="External order field" >
   <i name="OFIELD_KAPPA">      0.00000000</i>
   <v name="OFIELD_K">      0.00000000      0.00000000      0.00000000</v>
   <i name="OFIELD_Q6_NEAR">      0.00000000</i>
   <i name="OFIELD_Q6_FAR">      0.00000000</i>
   <i name="OFIELD_A">      0.00000000</i>
  </separator>
 </parameters>
 <atominfo>
  <atoms>      97 </atoms>
  <types>       3 </types>
  <array name="atoms" >
   <dimension dim="1">ion</dimension>
   <field type="string">element</field>
   <field type="int">atomtype</field>
   <set>
    <rc><c>B </c><c>   1</c></rc>
    <rc><c>B </c><c>   1</c></rc>
    <rc><c>B </c><c>   1</c></rc>
    <rc><c>B </c><c>   1</c></rc>
    <rc><c>B </c><c>   1</c></rc>
    <rc><c>B </c><c>   1</c></rc>
    <rc><c>B </c><c>   1</c></rc>
    <rc><c>B </c><c>   1</c></rc>
    <rc><c>B </c><c>   1</c></rc>
    <rc><c>B </c><c>   1</c></rc>
    <rc><c>B </c><c>   1</c></rc>
    <rc><c>B </c><c>   1</c></rc>
    <rc><c>B </c><c>   1</c></rc>
    <rc><c>B </c><c>   1</c></rc>
    <rc><c>B </c><c>   1</c></rc>
    <rc><c>B </c><c>   1</c></rc>
    <rc><c>B </c><c>   1</c></rc>
    <rc><c>B </c><c>   1</c></rc>
    <rc><c>B </c><c>   1</c></rc>
    <rc><c>B </c><c>   1</c></rc>
    <rc><c>B </c><c>   1</c></rc>
    <rc><c>B </c><c>   1</c></rc>
    <rc><c>B </c><c>   1</c></rc>
    <rc><c>B </c><c>   1</c></rc>
    <rc><c>B </c><c>   1</c></rc>
    <rc><c>B </c><c>   1</c></rc>
    <rc><c>B </c><c>   1</c></rc>
    <rc><c>B </c><c>   1</c></rc>
    <rc><c>B </c><c>   1</c></rc>
    <rc><c>B </c><c>   1</c></rc>
    <rc><c>B </c><c>   1</c></rc>
    <rc><c>B </c><c>   1</c></rc>
    <rc><c>B </c><c>   1</c></rc>
    <rc><c>B </c><c>   1</c></rc>
    <rc><c>B </c><c>   1</c></rc>
    <rc><c>B </c><c>   1</c></rc>
    <rc><c>B </c><c>   1</c></rc>
    <rc><c>B </c><c>   1</c></rc>
    <rc><c>B </c><c>   1</c></rc>
    <rc><c>B </c><c>   1</c></rc>
    <rc><c>B </c><c>   1</c></rc>
    <rc><c>B </c><c>   1</c></rc>
    <rc><c>B </c><c>   1</c></rc>
    <rc><c>B </c><c>   1</c></rc>
    <rc><c>B </c><c>   1</c></rc>
    <rc><c>B </c><c>   1</c></rc>
    <rc><c>B </c><c>   1</c></rc>
    <rc><c>B </c><c>   1</c></rc>
    <rc><c>N </c><c>   2</c></rc>
    <rc><c>N </c><c>   2</c></rc>
    <rc><c>N </c><c>   2</c></rc>
    <rc><c>N </c><c>   2</c></rc>
    <rc><c>N </c><c>   2</c></rc>
    <rc><c>N </c><c>   2</c></rc>
    <rc><c>N </c><c>   2</c></rc>
    <rc><c>N </c><c>   2</c></rc>
    <rc><c>N </c><c>   2</c></rc>
    <rc><c>N </c><c>   2</c></rc>
    <rc><c>N </c><c>   2</c></rc>
    <rc><c>N </c><c>   2</c></rc>
    <rc><c>N </c><c>   2</c></rc>
    <rc><c>N </c><c>   2</c></rc>
    <rc><c>N </c><c>   2</c></rc>
    <rc><c>N </c><c>   2</c></rc>
    <rc><c>N </c><c>   2</c></rc>
    <rc><c>N </c><c>   2</c></rc>
    <rc><c>N </c><c>   2</c></rc>
    <rc><c>N </c><c>   2</c></rc>
    <rc><c>N </c><c>   2</c></rc>
    <rc><c>N </c><c>   2</c></rc>
    <rc><c>N </c><c>   2</c></rc>
    <rc><c>N </c><c>   2</c></rc>
    <rc><c>N </c><c>   2</c></rc>
    <rc><c>N </c><c>   2</c></rc>
    <rc><c>N </c><c>   2</c></rc>
    <rc><c>N </c><c>   2</c></rc>
    <rc><c>N </c><c>   2</c></rc>
    <rc><c>N </c><c>   2</c></rc>
    <rc><c>N </c><c>   2</c></rc>
    <rc><c>N </c><c>   2</c></rc>
    <rc><c>N </c><c>   2</c></rc>
    <rc><c>N </c><c>   2</c></rc>
    <rc><c>N </c><c>   2</c></rc>
    <rc><c>N </c><c>   2</c></rc>
    <rc><c>N </c><c>   2</c></rc>
    <rc><c>N </c><c>   2</c></rc>
    <rc><c>N </c><c>   2</c></rc>
    <rc><c>N </c><c>   2</c></rc>
    <rc><c>N </c><c>   2</c></rc>
    <rc><c>N </c><c>   2</c></rc>
    <rc><c>N </c><c>   2</c></rc>
    <rc><c>N </c><c>   2</c></rc>
    <rc><c>N </c><c>   2</c></rc>
    <rc><c>N </c><c>   2</c></rc>
    <rc><c>N </c><c>   2</c></rc>
    <rc><c>N </c><c>   2</c></rc>
    <rc><c>C </c><c>   3</c></rc>
   </set>
  </array>
  <array name="atomtypes" >
   <dimension dim="1">type</dimension>
   <field type="int">atomspertype</field>
   <field type="string">element</field>
   <field>mass</field>
   <field>valence</field>
   <field type="string">pseudopotential</field>
   <set>
    <rc><c>  48</c><c>B </c><c>     10.81100000</c><c>      3.00000000</c><c>  PAW_PBE B 06Sep2000                   </c></rc>
    <rc><c>  48</c><c>N </c><c>     14.00100000</c><c>      5.00000000</c><c>  PAW_PBE N 08Apr2002                   </c></rc>
    <rc><c>   1</c><c>C </c><c>     12.01100000</c><c>      4.00000000</c><c>  PAW_PBE C 08Apr2002                   </c></rc>
   </set>
  </array>
 </atominfo>
 <structure name="initialpos" >
  <crystal>
   <varray name="basis" >
    <v>      17.59966831       0.00000000       0.00000000 </v>
    <v>      -8.79983416      15.24175986       0.00000000 </v>
    <v>       0.00000000       0.00000000      19.92151445 </v>
   </varray>
   <i name="volume">   5343.94461817 </i>
   <varray name="rec_basis" >
    <v>       0.05681925       0.03280461       0.00000000 </v>
    <v>       0.00000000       0.06560922       0.00000000 </v>
    <v>       0.00000000       0.00000000       0.05019699 </v>
   </varray>
  </crystal>
  <varray name="positions" >
   <v>       0.99943010       0.00005992       0.50000000 </v>
   <v>       0.14164706       0.99871895       0.50000000 </v>
   <v>       0.28492260       0.99841663       0.50000000 </v>
   <v>       0.42850047       0.99871895       0.50000000 </v>
   <v>       0.57205839       0.00005992       0.50000000 </v>
   <v>       0.71530655       0.00214292       0.50000000 </v>
   <v>       0.85826494       0.00214292       0.50000000 </v>
   <v>       0.00080792       0.14408264       0.50000000 </v>
   <v>       0.14259355       0.14244783       0.50000000 </v>
   <v>       0.28470221       0.14112972       0.50000000 </v>
   <v>       0.42785608       0.14112972       0.50000000 </v>
   <v>       0.57128286       0.14244783       0.50000000 </v>
   <v>       0.71470329       0.14408264       0.50000000 </v>
   <v>       0.85805263       0.14467669       0.50000000 </v>
   <v>       0.00095476       0.28713011       0.50000000 </v>
   <v>       0.14372552       0.28645370       0.50000000 </v>
   <v>       0.28540977       0.28469374       0.50000000 </v>
   <v>       0.42724431       0.28306005       0.50000000 </v>
   <v>       0.57071254       0.28469374       0.50000000 </v>
   <v>       0.71415674       0.28645370       0.50000000 </v>
   <v>       0.85760392       0.28713011       0.50000000 </v>
   <v>       0.00054479       0.42966101       0.50000000 </v>
   <v>       0.14422690       0.42957551       0.50000000 </v>
   <v>       0.28730213       0.42918005       0.50000000 </v>
   <v>       0.42797654       0.42569726       0.50000000 </v>
   <v>       0.56914930       0.42569726       0.50000000 </v>
   <v>       0.71330650       0.42918005       0.50000000 </v>
   <v>       0.85677719       0.42957551       0.50000000 </v>
   <v>       0.99928255       0.57181462       0.50000000 </v>
   <v>       0.14396064       0.57181462       0.50000000 </v>
   <v>       0.28862787       0.57181625       0.50000000 </v>
   <v>       0.43313209       0.57215564       0.50000000 </v>
   <v>       0.71045212       0.57215564       0.50000000 </v>
   <v>       0.85461695       0.57181625       0.50000000 </v>
   <v>       0.99707234       0.71370518       0.50000000 </v>
   <v>       0.14255519       0.71368182       0.50000000 </v>
   <v>       0.28806142       0.71370518       0.50000000 </v>
   <v>       0.43464191       0.71382540       0.50000000 </v>
   <v>       0.58510826       0.71626937       0.50000000 </v>
   <v>       0.70258968       0.71626937       0.50000000 </v>
   <v>       0.85061206       0.71382540       0.50000000 </v>
   <v>       0.99777175       0.85613493       0.50000000 </v>
   <v>       0.14160898       0.85591288       0.50000000 </v>
   <v>       0.28573247       0.85591288       0.50000000 </v>
   <v>       0.42979175       0.85613493       0.50000000 </v>
   <v>       0.57342541       0.85701871       0.50000000 </v>
   <v>       0.71640633       0.86138410       0.50000000 </v>
   <v>       0.85559006       0.85758690       0.50000000 </v>
   <v>       0.04754270       0.09547788       0.50000000 </v>
   <v>       0.18957833       0.09405657       0.50000000 </v>
   <v>       0.33254182       0.09365506       0.50000000 </v>
   <v>       0.47590681       0.09405657       0.50000000 </v>
   <v>       0.61936376       0.09547788       0.50000000 </v>
   <v>       0.76280004       0.09719274       0.50000000 </v>
   <v>       0.90582126       0.09719274       0.50000000 </v>
   <v>       0.04854983       0.23934281       0.50000000 </v>
   <v>       0.19048138       0.23782962       0.50000000 </v>
   <v>       0.33234878       0.23634667       0.50000000 </v>
   <v>       0.47542646       0.23634667       0.50000000 </v>
   <v>       0.61877681       0.23782962       0.50000000 </v>
   <v>       0.76222155       0.23934281       0.50000000 </v>
   <v>       0.90562797       0.23982737       0.50000000 </v>
   <v>       0.04871288       0.38232824       0.50000000 </v>
   <v>       0.19188940       0.38184213       0.50000000 </v>
   <v>       0.33352206       0.38013969       0.50000000 </v>
   <v>       0.47472270       0.37801683       0.50000000 </v>
   <v>       0.61804620       0.38013969       0.50000000 </v>
   <v>       0.76138130       0.38184213       0.50000000 </v>
   <v>       0.90504393       0.38232824       0.50000000 </v>
   <v>       0.04810654       0.52478452       0.50000000 </v>
   <v>       0.19263929       0.52476864       0.50000000 </v>
   <v>       0.33696521       0.52455433       0.50000000 </v>
   <v>       0.47833704       0.52146721       0.50000000 </v>
   <v>       0.61455874       0.52146721       0.50000000 </v>
   <v>       0.75901769       0.52455433       0.50000000 </v>
   <v>       0.90355792       0.52476864       0.50000000 </v>
   <v>       0.04642473       0.66685228       0.50000000 </v>
   <v>       0.19185612       0.66685228       0.50000000 </v>
   <v>       0.33777931       0.66688794       0.50000000 </v>
   <v>       0.48615700       0.66710760       0.50000000 </v>
   <v>       0.75237918       0.66710760       0.50000000 </v>
   <v>       0.90053720       0.66688794       0.50000000 </v>
   <v>       0.04582562       0.80879365       0.50000000 </v>
   <v>       0.19009580       0.80876303       0.50000000 </v>
   <v>       0.33439660       0.80879365       0.50000000 </v>
   <v>       0.47844872       0.80897069       0.50000000 </v>
   <v>       0.62209487       0.81129474       0.50000000 </v>
   <v>       0.76062845       0.81129474       0.50000000 </v>
   <v>       0.90195054       0.80897069       0.50000000 </v>
   <v>       0.04629157       0.95154386       0.50000000 </v>
   <v>       0.18948291       0.95113037       0.50000000 </v>
   <v>       0.33307603       0.95113037       0.50000000 </v>
   <v>       0.47668087       0.95154386       0.50000000 </v>
   <v>       0.62015751       0.95313740       0.50000000 </v>
   <v>       0.76355772       0.95568687       0.50000000 </v>
   <v>       0.90440847       0.95313740       0.50000000 </v>
   <v>       0.56830873       0.56518888       0.50000000 </v>
  </varray>
 </structure>
 <calculation>
  <scstep>
   <time name="dav">    2.36    2.38</time>
   <time name="total">    2.73    2.84</time>
   <energy>
    <i name="alphaZ">    156.50993408 </i>
    <i name="ewald">  58206.69392128 </i>
    <i name="hartreedc"> -70374.10657032 </i>
    <i name="XCdc">   1302.10883399 </i>
    <i name="pawpsdc">  12033.28670802 </i>
    <i name="pawaedc"> -12049.96799276 </i>
    <i name="eentropy">     -0.00000000 </i>
    <i name="bandstr">   -904.54224601 </i>
    <i name="atom">  16260.93880140 </i>
    <i name="e_fr_energy">   4630.92138968 </i>
    <i name="e_wo_entrp">   4630.92138968 </i>
    <i name="e_0_energy">   4630.92138968 </i>
   </energy>
  </scstep>
  <scstep>
   <time name="dav">    2.99    3.03</time>
   <time name="total">    2.99    3.03</time>
   <energy>
    <i name="e_fr_energy">    216.85214784 </i>
    <i name="e_wo_entrp">    216.85214784 </i>
    <i name="e_0_energy">    216.85214784 </i>
   </energy>
  </scstep>
  <scstep>
   <time name="dav">    2.48    2.50</time>
   <time name="total">    2.48    2.50</time>
   <energy>
    <i name="e_fr_energy">   -867.43581338 </i>
    <i name="e_wo_entrp">   -867.43581338 </i>
    <i name="e_0_energy">   -867.43581338 </i>
   </energy>
  </scstep>
  <scstep>
   <time name="dav">    2.48    2.52</time>
   <time name="total">    2.49    2.52</time>
   <energy>
    <i name="e_fr_energy">   -934.19496977 </i>
    <i name="e_wo_entrp">   -934.19496977 </i>
    <i name="e_0_energy">   -934.19496977 </i>
   </energy>
  </scstep>
  <scstep>
   <time name="dav">    2.51    2.53</time>
   <time name="total">    2.94    2.97</time>
   <energy>
    <i name="e_fr_energy">   -935.77596727 </i>
    <i name="e_wo_entrp">   -935.77596727 </i>
    <i name="e_0_energy">   -935.77596727 </i>
   </energy>
  </scstep>
  <scstep>
   <time name="dav">    2.32    2.34</time>
   <time name="total">    3.12    3.15</time>
   <energy>
    <i name="e_fr_energy">   -858.73415894 </i>
    <i name="e_wo_entrp">   -858.73415894 </i>
    <i name="e_0_energy">   -858.73415894 </i>
   </energy>
  </scstep>
  <scstep>
   <time name="dav">    2.37    2.38</time>
   <time name="total">    3.17    3.20</time>
   <energy>
    <i name="e_fr_energy">   -850.19428866 </i>
    <i name="e_wo_entrp">   -850.19428866 </i>
    <i name="e_0_energy">   -850.19428866 </i>
   </energy>
  </scstep>
  <scstep>
   <time name="dav">    2.28    2.30</time>
   <time name="total">    3.08    3.11</time>
   <energy>
    <i name="e_fr_energy">   -845.92698156 </i>
    <i name="e_wo_entrp">   -845.92698065 </i>
    <i name="e_0_energy">   -845.92698111 </i>
   </energy>
  </scstep>
  <scstep>
   <time name="dav">    2.31    2.32</time>
   <time name="total">    3.11    3.14</time>
   <energy>
    <i name="e_fr_energy">   -845.80120560 </i>
    <i name="e_wo_entrp">   -845.80120560 </i>
    <i name="e_0_energy">   -845.80120560 </i>
   </energy>
  </scstep>
  <scstep>
   <time name="dav">    2.38    2.40</time>
   <time name="total">    3.19    3.22</time>
   <energy>
    <i name="e_fr_energy">   -845.63967832 </i>
    <i name="e_wo_entrp">   -845.63967832 </i>
    <i name="e_0_energy">   -845.63967832 </i>
   </energy>
  </scstep>
  <scstep>
   <time name="dav">    2.24    2.25</time>
   <time name="total">    3.05    3.08</time>
   <energy>
    <i name="e_fr_energy">   -845.58703329 </i>
    <i name="e_wo_entrp">   -845.58703329 </i>
    <i name="e_0_energy">   -845.58703329 </i>
   </energy>
  </scstep>
  <scstep>
   <time name="dav">    2.26    2.27</time>
   <time name="total">    3.07    3.10</time>
   <energy>
    <i name="e_fr_energy">   -845.57455378 </i>
    <i name="e_wo_entrp">   -845.57455378 </i>
    <i name="e_0_energy">   -845.57455378 </i>
   </energy>
  </scstep>
  <scstep>
   <time name="dav">    2.23    2.25</time>
   <time name="total">    3.43    3.47</time>
   <energy>
    <i name="e_fr_energy">   -845.58508367 </i>
    <i name="e_wo_entrp">   -845.58508367 </i>
    <i name="e_0_energy">   -845.58508367 </i>
   </energy>
  </scstep>
  <scstep>
   <time name="dav">    2.28    2.30</time>
   <time name="total">    3.09    3.13</time>
   <energy>
    <i name="e_fr_energy">   -845.59454802 </i>
    <i name="e_wo_entrp">   -845.59454802 </i>
    <i name="e_0_energy">   -845.59454802 </i>
   </energy>
  </scstep>
  <scstep>
   <time name="dav">    2.28    2.30</time>
   <time name="total">    3.09    3.13</time>
   <energy>
    <i name="e_fr_energy">   -845.62553902 </i>
    <i name="e_wo_entrp">   -845.62553902 </i>
    <i name="e_0_energy">   -845.62553902 </i>
   </energy>
  </scstep>
  <scstep>
   <time name="dav">    2.21    2.23</time>
   <time name="total">    3.02    3.05</time>
   <energy>
    <i name="e_fr_energy">   -845.64212854 </i>
    <i name="e_wo_entrp">   -845.64212854 </i>
    <i name="e_0_energy">   -845.64212854 </i>
   </energy>
  </scstep>
  <scstep>
   <time name="dav">    2.27    2.29</time>
   <time name="total">    3.07    3.11</time>
   <energy>
    <i name="e_fr_energy">   -845.64839395 </i>
    <i name="e_wo_entrp">   -845.64839395 </i>
    <i name="e_0_energy">   -845.64839395 </i>
   </energy>
  </scstep>
  <scstep>
   <time name="dav">    2.21    2.23</time>
   <time name="total">    3.03    3.06</time>
   <energy>
    <i name="e_fr_energy">   -845.65165429 </i>
    <i name="e_wo_entrp">   -845.65165429 </i>
    <i name="e_0_energy">   -845.65165429 </i>
   </energy>
  </scstep>
  <scstep>
   <time name="dav">    2.31    2.32</time>
   <time name="total">    3.12    3.15</time>
   <energy>
    <i name="e_fr_energy">   -845.65270568 </i>
    <i name="e_wo_entrp">   -845.65270568 </i>
    <i name="e_0_energy">   -845.65270568 </i>
   </energy>
  </scstep>
  <scstep>
   <time name="dav">    2.22    2.23</time>
   <time name="total">    3.02    3.06</time>
   <energy>
    <i name="e_fr_energy">   -845.65312744 </i>
    <i name="e_wo_entrp">   -845.65312744 </i>
    <i name="e_0_energy">   -845.65312744 </i>
   </energy>
  </scstep>
  <scstep>
   <time name="dav">    2.23    2.25</time>
   <time name="total">    3.04    3.07</time>
   <energy>
    <i name="e_fr_energy">   -845.65333334 </i>
    <i name="e_wo_entrp">   -845.65333334 </i>
    <i name="e_0_energy">   -845.65333334 </i>
   </energy>
  </scstep>
  <scstep>
   <time name="dav">    2.18    2.20</time>
   <time name="total">    2.99    3.02</time>
   <energy>
    <i name="e_fr_energy">   -845.65344506 </i>
    <i name="e_wo_entrp">   -845.65344506 </i>
    <i name="e_0_energy">   -845.65344506 </i>
   </energy>
  </scstep>
  <scstep>
   <time name="dav">    2.26    2.28</time>
   <time name="total">    3.07    3.10</time>
   <energy>
    <i name="e_fr_energy">   -845.65352521 </i>
    <i name="e_wo_entrp">   -845.65352521 </i>
    <i name="e_0_energy">   -845.65352521 </i>
   </energy>
  </scstep>
  <scstep>
   <time name="dav">    2.31    2.33</time>
   <time name="total">    3.13    3.16</time>
   <energy>
    <i name="e_fr_energy">   -845.65356443 </i>
    <i name="e_wo_entrp">   -845.65356443 </i>
    <i name="e_0_energy">   -845.65356443 </i>
   </energy>
  </scstep>
  <scstep>
   <time name="dav">    2.26    2.27</time>
   <time name="total">    3.07    3.10</time>
   <energy>
    <i name="e_fr_energy">   -845.65358317 </i>
    <i name="e_wo_entrp">   -845.65358317 </i>
    <i name="e_0_energy">   -845.65358317 </i>
   </energy>
  </scstep>
  <scstep>
   <time name="dav">    2.23    2.25</time>
   <time name="total">    3.05    3.08</time>
   <energy>
    <i name="e_fr_energy">   -845.65360042 </i>
    <i name="e_wo_entrp">   -845.65360042 </i>
    <i name="e_0_energy">   -845.65360042 </i>
   </energy>
  </scstep>
  <scstep>
   <time name="dav">    2.16    2.18</time>
   <time name="total">    2.98    3.01</time>
   <energy>
    <i name="e_fr_energy">   -845.65360394 </i>
    <i name="e_wo_entrp">   -845.65360394 </i>
    <i name="e_0_energy">   -845.65360394 </i>
   </energy>
  </scstep>
  <scstep>
   <time name="dav">    1.97    1.98</time>
   <time name="total">    2.79    2.81</time>
   <energy>
    <i name="e_fr_energy">   -845.65360520 </i>
    <i name="e_wo_entrp">   -845.65360520 </i>
    <i name="e_0_energy">   -845.65360520 </i>
   </energy>
  </scstep>
  <scstep>
   <time name="dav">    1.79    1.81</time>
   <time name="total">    2.61    2.64</time>
   <energy>
    <i name="e_fr_energy">   -845.65360549 </i>
    <i name="e_wo_entrp">   -845.65360549 </i>
    <i name="e_0_energy">   -845.65360549 </i>
   </energy>
  </scstep>
  <scstep>
   <time name="dav">    1.68    1.70</time>
   <time name="total">    2.51    2.53</time>
   <energy>
    <i name="e_fr_energy">   -845.65360559 </i>
    <i name="e_wo_entrp">   -845.65360559 </i>
    <i name="e_0_energy">   -845.65360559 </i>
   </energy>
  </scstep>
  <scstep>
   <time name="dav">    1.70    1.71</time>
   <time name="total">    2.52    2.55</time>
   <energy>
    <i name="e_fr_energy">   -845.65360565 </i>
    <i name="e_wo_entrp">   -845.65360565 </i>
    <i name="e_0_energy">   -845.65360565 </i>
   </energy>
  </scstep>
  <scstep>
   <time name="dav">    1.70    1.71</time>
   <time name="total">    2.52    2.54</time>
   <energy>
    <i name="e_fr_energy">   -845.65360569 </i>
    <i name="e_wo_entrp">   -845.65360569 </i>
    <i name="e_0_energy">   -845.65360569 </i>
   </energy>
  </scstep>
  <scstep>
   <time name="dav">    1.82    1.83</time>
   <time name="total">    2.19    2.21</time>
   <energy>
    <i name="alphaZ">    156.50993408 </i>
    <i name="ewald">  58206.69392128 </i>
    <i name="hartreedc"> -72314.24590974 </i>
    <i name="XCdc">   1369.72504836 </i>
    <i name="pawpsdc">  44019.05378027 </i>
    <i name="pawaedc"> -44054.39597782 </i>
    <i name="eentropy">     -0.00000000 </i>
    <i name="bandstr">  -4489.93320352 </i>
    <i name="atom">  16260.93880140 </i>
    <i name="e_fr_energy">   -845.65360569 </i>
    <i name="e_wo_entrp">   -845.65360569 </i>
    <i name="e_0_energy">   -845.65360569 </i>
   </energy>
  </scstep>
  <structure>
   <crystal>
    <varray name="basis" >
     <v>      17.59966831       0.00000000       0.00000000 </v>
     <v>      -8.79983416      15.24175986       0.00000000 </v>
     <v>       0.00000000       0.00000000      19.92151445 </v>
    </varray>
    <i name="volume">   5343.94461817 </i>
    <varray name="rec_basis" >
     <v>       0.05681925       0.03280461       0.00000000 </v>
     <v>       0.00000000       0.06560922       0.00000000 </v>
     <v>       0.00000000       0.00000000       0.05019699 </v>
    </varray>
   </crystal>
   <varray name="positions" >
    <v>       0.99943010       0.00005992       0.50000000 </v>
    <v>       0.14164706       0.99871895       0.50000000 </v>
    <v>       0.28492260       0.99841663       0.50000000 </v>
    <v>       0.42850047       0.99871895       0.50000000 </v>
    <v>       0.57205839       0.00005992       0.50000000 </v>
    <v>       0.71530655       0.00214292       0.50000000 </v>
    <v>       0.85826494       0.00214292       0.50000000 </v>
    <v>       0.00080792       0.14408264       0.50000000 </v>
    <v>       0.14259355       0.14244783       0.50000000 </v>
    <v>       0.28470221       0.14112972       0.50000000 </v>
    <v>       0.42785608       0.14112972       0.50000000 </v>
    <v>       0.57128286       0.14244783       0.50000000 </v>
    <v>       0.71470329       0.14408264       0.50000000 </v>
    <v>       0.85805263       0.14467669       0.50000000 </v>
    <v>       0.00095476       0.28713011       0.50000000 </v>
    <v>       0.14372552       0.28645370       0.50000000 </v>
    <v>       0.28540977       0.28469374       0.50000000 </v>
    <v>       0.42724431       0.28306005       0.50000000 </v>
    <v>       0.57071254       0.28469374       0.50000000 </v>
    <v>       0.71415674       0.28645370       0.50000000 </v>
    <v>       0.85760392       0.28713011       0.50000000 </v>
    <v>       0.00054479       0.42966101       0.50000000 </v>
    <v>       0.14422690       0.42957551       0.50000000 </v>
    <v>       0.28730213       0.42918005       0.50000000 </v>
    <v>       0.42797654       0.42569726       0.50000000 </v>
    <v>       0.56914930       0.42569726       0.50000000 </v>
    <v>       0.71330650       0.42918005       0.50000000 </v>
    <v>       0.85677719       0.42957551       0.50000000 </v>
    <v>       0.99928255       0.57181462       0.50000000 </v>
    <v>       0.14396064       0.57181462       0.50000000 </v>
    <v>       0.28862787       0.57181625       0.50000000 </v>
    <v>       0.43313209       0.57215564       0.50000000 </v>
    <v>       0.71045212       0.57215564       0.50000000 </v>
    <v>       0.85461695       0.57181625       0.50000000 </v>
    <v>       0.99707234       0.71370518       0.50000000 </v>
    <v>       0.14255519       0.71368182       0.50000000 </v>
    <v>       0.28806142       0.71370518       0.50000000 </v>
    <v>       0.43464191       0.71382540       0.50000000 </v>
    <v>       0.58510826       0.71626937       0.50000000 </v>
    <v>       0.70258968       0.71626937       0.50000000 </v>
    <v>       0.85061206       0.71382540       0.50000000 </v>
    <v>       0.99777175       0.85613493       0.50000000 </v>
    <v>       0.14160898       0.85591288       0.50000000 </v>
    <v>       0.28573247       0.85591288       0.50000000 </v>
    <v>       0.42979175       0.85613493       0.50000000 </v>
    <v>       0.57342541       0.85701871       0.50000000 </v>
    <v>       0.71640633       0.86138410       0.50000000 </v>
    <v>       0.85559006       0.85758690       0.50000000 </v>
    <v>       0.04754270       0.09547788       0.50000000 </v>
    <v>       0.18957833       0.09405657       0.50000000 </v>
    <v>       0.33254182       0.09365506       0.50000000 </v>
    <v>       0.47590681       0.09405657       0.50000000 </v>
    <v>       0.61936376       0.09547788       0.50000000 </v>
    <v>       0.76280004       0.09719274       0.50000000 </v>
    <v>       0.90582126       0.09719274       0.50000000 </v>
    <v>       0.04854983       0.23934281       0.50000000 </v>
    <v>       0.19048138       0.23782962       0.50000000 </v>
    <v>       0.33234878       0.23634667       0.50000000 </v>
    <v>       0.47542646       0.23634667       0.50000000 </v>
    <v>       0.61877681       0.23782962       0.50000000 </v>
    <v>       0.76222155       0.23934281       0.50000000 </v>
    <v>       0.90562797       0.23982737       0.50000000 </v>
    <v>       0.04871288       0.38232824       0.50000000 </v>
    <v>       0.19188940       0.38184213       0.50000000 </v>
    <v>       0.33352206       0.38013969       0.50000000 </v>
    <v>       0.47472270       0.37801683       0.50000000 </v>
    <v>       0.61804620       0.38013969       0.50000000 </v>
    <v>       0.76138130       0.38184213       0.50000000 </v>
    <v>       0.90504393       0.38232824       0.50000000 </v>
    <v>       0.04810654       0.52478452       0.50000000 </v>
    <v>       0.19263929       0.52476864       0.50000000 </v>
    <v>       0.33696521       0.52455433       0.50000000 </v>
    <v>       0.47833704       0.52146721       0.50000000 </v>
    <v>       0.61455874       0.52146721       0.50000000 </v>
    <v>       0.75901769       0.52455433       0.50000000 </v>
    <v>       0.90355792       0.52476864       0.50000000 </v>
    <v>       0.04642473       0.66685228       0.50000000 </v>
    <v>       0.19185612       0.66685228       0.50000000 </v>
    <v>       0.33777931       0.66688794       0.50000000 </v>
    <v>       0.48615700       0.66710760       0.50000000 </v>
    <v>       0.75237918       0.66710760       0.50000000 </v>
    <v>       0.90053720       0.66688794       0.50000000 </v>
    <v>       0.04582562       0.80879365       0.50000000 </v>
    <v>       0.19009580       0.80876303       0.50000000 </v>
    <v>       0.33439660       0.80879365       0.50000000 </v>
    <v>       0.47844872       0.80897069       0.50000000 </v>
    <v>       0.62209487       0.81129474       0.50000000 </v>
    <v>       0.76062845       0.81129474       0.50000000 </v>
    <v>       0.90195054       0.80897069       0.50000000 </v>
    <v>       0.04629157       0.95154386       0.50000000 </v>
    <v>       0.18948291       0.95113037       0.50000000 </v>
    <v>       0.33307603       0.95113037       0.50000000 </v>
    <v>       0.47668087       0.95154386       0.50000000 </v>
    <v>       0.62015751       0.95313740       0.50000000 </v>
    <v>       0.76355772       0.95568687       0.50000000 </v>
    <v>       0.90440847       0.95313740       0.50000000 </v>
    <v>       0.56830873       0.56518888       0.50000000 </v>
   </varray>
  </structure>
  <varray name="forces" >
   <v>      -0.03819942      -0.02507300       0.00000000 </v>
   <v>      -0.02049645      -0.00923272       0.00000000 </v>
   <v>       0.00186469      -0.01305437       0.00000000 </v>
   <v>       0.02767643      -0.01217898       0.00000000 </v>
   <v>       0.07064907      -0.05864395      -0.00000000 </v>
   <v>      -0.07507336      -0.06066433       0.00000000 </v>
   <v>       0.03198761      -0.04876638       0.00000000 </v>
   <v>      -0.00792533      -0.02743325       0.00000000 </v>
   <v>      -0.02685673      -0.02586249       0.00000000 </v>
   <v>      -0.00636529      -0.03441425       0.00000000 </v>
   <v>       0.01077820      -0.03536768       0.00000000 </v>
   <v>       0.03252249      -0.02912705       0.00000000 </v>
   <v>       0.00537865      -0.03342609       0.00000000 </v>
   <v>      -0.00757380      -0.04330205       0.00000000 </v>
   <v>      -0.01073411      -0.03048335       0.00000000 </v>
   <v>       0.00441202      -0.04543225       0.00000000 </v>
   <v>      -0.03031718      -0.00421125       0.00000000 </v>
   <v>       0.00131922      -0.09571818       0.00000000 </v>
   <v>       0.03259251      -0.00504045       0.00000000 </v>
   <v>      -0.00399806      -0.04731914       0.00000000 </v>
   <v>       0.00678365      -0.03183235       0.00000000 </v>
   <v>      -0.00093768       0.00625217       0.00000000 </v>
   <v>      -0.02672339      -0.00171890       0.00000000 </v>
   <v>       0.05696440      -0.14081628       0.00000000 </v>
   <v>      -0.11185095      -0.20238899       0.00000000 </v>
   <v>       0.11314886      -0.20236492       0.00000000 </v>
   <v>      -0.05615745      -0.14066562       0.00000000 </v>
   <v>       0.02557280      -0.00266448       0.00000000 </v>
   <v>       0.01705727       0.02848648      -0.00000000 </v>
   <v>      -0.01766342       0.02908041       0.00000000 </v>
   <v>      -0.08880416       0.12917458      -0.00000000 </v>
   <v>       0.05024185       0.38836172      -0.00000000 </v>
   <v>      -0.04898807       0.39385094       0.00000000 </v>
   <v>       0.08682826       0.12702809      -0.00000000 </v>
   <v>      -0.00724844       0.02255761       0.00000000 </v>
   <v>       0.00007961       0.02842597       0.00000000 </v>
   <v>       0.00769603       0.02330344       0.00000000 </v>
   <v>       0.05987358       0.04068948       0.00000000 </v>
   <v>       1.37689174       1.21224056       0.00000000 </v>
   <v>      -1.36121986       1.24580594       0.00000000 </v>
   <v>      -0.08396590       0.04277338       0.00000000 </v>
   <v>      -0.04442295      -0.00629979       0.00000000 </v>
   <v>      -0.01164617      -0.00346343       0.00000000 </v>
   <v>       0.01318605      -0.00115462       0.00000000 </v>
   <v>       0.05943085       0.01455599       0.00000000 </v>
   <v>      -0.10496077       0.45230249       0.00000000 </v>
   <v>       0.02668518      -0.22220851       0.00000000 </v>
   <v>      -0.14435260       0.04272308       0.00000000 </v>
   <v>       0.02717113       0.03105446       0.00000000 </v>
   <v>       0.00987507       0.02311441      -0.00000000 </v>
   <v>      -0.00194160       0.02771635      -0.00000000 </v>
   <v>      -0.01470684       0.02517691      -0.00000000 </v>
   <v>      -0.02926622       0.04205245      -0.00000000 </v>
   <v>      -0.00441541       0.03785166       0.00000000 </v>
   <v>       0.01619940       0.02564053       0.00000000 </v>
   <v>       0.01782356       0.03600709      -0.00000000 </v>
   <v>      -0.00825319       0.00399431       0.00000000 </v>
   <v>       0.01496929       0.03685195       0.00000000 </v>
   <v>      -0.01745642       0.03767437       0.00000000 </v>
   <v>       0.00662430       0.00685583       0.00000000 </v>
   <v>      -0.01612065       0.04042143      -0.00000000 </v>
   <v>       0.00250810       0.03363747       0.00000000 </v>
   <v>       0.01235466       0.02741514       0.00000000 </v>
   <v>       0.04922170       0.06077186       0.00000000 </v>
   <v>      -0.02159821      -0.19809698       0.00000000 </v>
   <v>      -0.00079669       0.11242359      -0.00000000 </v>
   <v>       0.02036270      -0.19738546       0.00000000 </v>
   <v>      -0.04886424       0.06222285       0.00000000 </v>
   <v>      -0.01072740       0.02842566      -0.00000000 </v>
   <v>       0.00026976       0.00980915      -0.00000000 </v>
   <v>       0.02713054      -0.00693703       0.00000000 </v>
   <v>       0.19365662       0.11544086      -0.00000000 </v>
   <v>       1.02147498      -1.56124661      -0.00000000 </v>
   <v>      -1.02412293      -1.56170454       0.00000000 </v>
   <v>      -0.19191324       0.11474106       0.00000000 </v>
   <v>      -0.02652973      -0.00566411       0.00000000 </v>
   <v>       0.00909102      -0.03292068      -0.00000000 </v>
   <v>      -0.00947407      -0.03345550       0.00000000 </v>
   <v>      -0.05715999      -0.07215998       0.00000000 </v>
   <v>      -0.25810055       0.02006340       0.00000000 </v>
   <v>       0.26651370       0.01103872      -0.00000000 </v>
   <v>       0.05695729      -0.06568715       0.00000000 </v>
   <v>       0.03478689      -0.01339326      -0.00000000 </v>
   <v>      -0.00056299      -0.01223401      -0.00000000 </v>
   <v>      -0.03222216      -0.01750539      -0.00000000 </v>
   <v>      -0.04567452      -0.08390662       0.00000000 </v>
   <v>      -0.73715216       0.12127739      -0.00000000 </v>
   <v>       0.86994378       0.24073758       0.00000000 </v>
   <v>       0.08137426      -0.01411407      -0.00000000 </v>
   <v>       0.03049909       0.01591761      -0.00000000 </v>
   <v>       0.00845866      -0.00420734       0.00000000 </v>
   <v>      -0.01339575      -0.00518530       0.00000000 </v>
   <v>      -0.04506979       0.01148557      -0.00000000 </v>
   <v>      -0.06880227      -0.05549838       0.00000000 </v>
   <v>       0.01156464      -0.00137275       0.00000000 </v>
   <v>       0.11041877       0.11452859       0.00000000 </v>
   <v>       0.00193764      -0.11895636       0.00000000 </v>
  </varray>
  <varray name="stress" >
   <v>     -10.57132128      -0.02113656       0.00000000 </v>
   <v>      -0.02113656       3.00849234       0.00000000 </v>
   <v>       0.00000000       0.00000000      -0.42556953 </v>
  </varray>
  <energy>
   <i name="e_fr_energy">   -845.65360569 </i>
   <i name="e_wo_entrp">   -845.65360569 </i>
   <i name="e_0_energy">     -0.00000000 </i>
  </energy>
  <time name="totalsc">  104.31  105.52</time>
  <eigenvalues>
   <array>
    <dimension dim="1">band</dimension>
    <dimension dim="2">kpoint</dimension>
    <dimension dim="3">spin</dimension>
    <field>eigene</field>
    <field>occ</field>
    <set>
     <set comment="spin 1">
      <set comment="kpoint 1">
       <r>  -22.5433    1.0000 </r>
       <r>  -22.0182    1.0000 </r>
       <r>  -21.7727    1.0000 </r>
       <r>  -21.7433    1.0000 </r>
       <r>  -21.6953    1.0000 </r>
       <r>  -21.6527    1.0000 </r>
       <r>  -21.6158    1.0000 </r>
       <r>  -21.2383    1.0000 </r>
       <r>  -21.0698    1.0000 </r>
       <r>  -21.0043    1.0000 </r>
       <r>  -20.9663    1.0000 </r>
       <r>  -20.9267    1.0000 </r>
       <r>  -20.8770    1.0000 </r>
       <r>  -20.7436    1.0000 </r>
       <r>  -20.6994    1.0000 </r>
       <r>  -20.6632    1.0000 </r>
       <r>  -20.5944    1.0000 </r>
       <r>  -20.5694    1.0000 </r>
       <r>  -20.4317    1.0000 </r>
       <r>  -19.9816    1.0000 </r>
       <r>  -19.9268    1.0000 </r>
       <r>  -19.8038    1.0000 </r>
       <r>  -19.7621    1.0000 </r>
       <r>  -19.7357    1.0000 </r>
       <r>  -19.7345    1.0000 </r>
       <r>  -19.7044    1.0000 </r>
       <r>  -19.6960    1.0000 </r>
       <r>  -19.6453    1.0000 </r>
       <r>  -19.6418    1.0000 </r>
       <r>  -19.6258    1.0000 </r>
       <r>  -19.4917    1.0000 </r>
       <r>  -19.4066    1.0000 </r>
       <r>  -19.3596    1.0000 </r>
       <r>  -19.3560    1.0000 </r>
       <r>  -19.2927    1.0000 </r>
       <r>  -19.2421    1.0000 </r>
       <r>  -19.1083    1.0000 </r>
       <r>  -18.9994    1.0000 </r>
       <r>  -18.9297    1.0000 </r>
       <r>  -18.8745    1.0000 </r>
       <r>  -18.8543    1.0000 </r>
       <r>  -18.8364    1.0000 </r>
       <r>  -18.7643    1.0000 </r>
       <r>  -18.7472    1.0000 </r>
       <r>  -18.7223    1.0000 </r>
       <r>  -18.7142    1.0000 </r>
       <r>  -18.6948    1.0000 </r>
       <r>  -18.4583    1.0000 </r>
       <r>  -14.1429    1.0000 </r>
       <r>  -13.1834    1.0000 </r>
       <r>  -13.1557    1.0000 </r>
       <r>  -13.1086    1.0000 </r>
       <r>  -13.1030    1.0000 </r>
       <r>  -13.0781    1.0000 </r>
       <r>  -13.0153    1.0000 </r>
       <r>  -12.9593    1.0000 </r>
       <r>  -12.9483    1.0000 </r>
       <r>  -12.9351    1.0000 </r>
       <r>  -12.8043    1.0000 </r>
       <r>  -12.7642    1.0000 </r>
       <r>  -12.6041    1.0000 </r>
       <r>  -12.5030    1.0000 </r>
       <r>  -12.4861    1.0000 </r>
       <r>  -12.3778    1.0000 </r>
       <r>  -12.3088    1.0000 </r>
       <r>  -12.2973    1.0000 </r>
       <r>  -12.1763    1.0000 </r>
       <r>  -11.9010    1.0000 </r>
       <r>  -11.8847    1.0000 </r>
       <r>  -11.7670    1.0000 </r>
       <r>  -11.7628    1.0000 </r>
       <r>  -11.7495    1.0000 </r>
       <r>  -11.7370    1.0000 </r>
       <r>  -11.6938    1.0000 </r>
       <r>  -11.6562    1.0000 </r>
       <r>  -11.6351    1.0000 </r>
       <r>  -11.5452    1.0000 </r>
       <r>  -11.4229    1.0000 </r>
       <r>  -11.2023    1.0000 </r>
       <r>  -11.1232    1.0000 </r>
       <r>  -11.0834    1.0000 </r>
       <r>  -11.0570    1.0000 </r>
       <r>  -10.9651    1.0000 </r>
       <r>  -10.9139    1.0000 </r>
       <r>  -10.6871    1.0000 </r>
       <r>  -10.4620    1.0000 </r>
       <r>  -10.4309    1.0000 </r>
       <r>  -10.3507    1.0000 </r>
       <r>  -10.2539    1.0000 </r>
       <r>  -10.2074    1.0000 </r>
       <r>   -9.8899    1.0000 </r>
       <r>   -9.7704    1.0000 </r>
       <r>   -9.7622    1.0000 </r>
       <r>   -9.7243    1.0000 </r>
       <r>   -9.6770    1.0000 </r>
       <r>   -9.5865    1.0000 </r>
       <r>   -9.5414    1.0000 </r>
       <r>   -9.4978    1.0000 </r>
       <r>   -9.4624    1.0000 </r>
       <r>   -9.3515    1.0000 </r>
       <r>   -9.3426    1.0000 </r>
       <r>   -9.2875    1.0000 </r>
       <r>   -9.2597    1.0000 </r>
       <r>   -9.2560    1.0000 </r>
       <r>   -9.2507    1.0000 </r>
       <r>   -9.2384    1.0000 </r>
       <r>   -9.2225    1.0000 </r>
       <r>   -9.2210    1.0000 </r>
       <r>   -9.2055    1.0000 </r>
       <r>   -9.2019    1.0000 </r>
       <r>   -9.1982    1.0000 </r>
       <r>   -9.1933    1.0000 </r>
       <r>   -9.1539    1.0000 </r>
       <r>   -9.1382    1.0000 </r>
       <r>   -9.1111    1.0000 </r>
       <r>   -9.1099    1.0000 </r>
       <r>   -9.1014    1.0000 </r>
       <r>   -9.0459    1.0000 </r>
       <r>   -8.9946    1.0000 </r>
       <r>   -8.8452    1.0000 </r>
       <r>   -8.7923    1.0000 </r>
       <r>   -8.6536    1.0000 </r>
       <r>   -8.5070    1.0000 </r>
       <r>   -8.4798    1.0000 </r>
       <r>   -8.4422    1.0000 </r>
       <r>   -8.3289    1.0000 </r>
       <r>   -8.2227    1.0000 </r>
       <r>   -8.2021    1.0000 </r>
       <r>   -8.1978    1.0000 </r>
       <r>   -8.1682    1.0000 </r>
       <r>   -8.1498    1.0000 </r>
       <r>   -8.1233    1.0000 </r>
       <r>   -8.0394    1.0000 </r>
       <r>   -7.9697    1.0000 </r>
       <r>   -7.9512    1.0000 </r>
       <r>   -7.8712    1.0000 </r>
       <r>   -7.8478    1.0000 </r>
       <r>   -7.8443    1.0000 </r>
       <r>   -7.8007    1.0000 </r>
       <r>   -7.7973    1.0000 </r>
       <r>   -7.7963    1.0000 </r>
       <r>   -7.7343    1.0000 </r>
       <r>   -7.7339    1.0000 </r>
       <r>   -7.7138    1.0000 </r>
       <r>   -7.6784    1.0000 </r>
       <r>   -7.6746    1.0000 </r>
       <r>   -7.6636    1.0000 </r>
       <r>   -7.6396    1.0000 </r>
       <r>   -7.6357    1.0000 </r>
       <r>   -7.4444    1.0000 </r>
       <r>   -7.4381    1.0000 </r>
       <r>   -7.4272    1.0000 </r>
       <r>   -7.3832    1.0000 </r>
       <r>   -7.3639    1.0000 </r>
       <r>   -7.2722    1.0000 </r>
       <r>   -6.8330    1.0000 </r>
       <r>   -6.7589    1.0000 </r>
       <r>   -6.6230    1.0000 </r>
       <r>   -6.6074    1.0000 </r>
       <r>   -6.5428    1.0000 </r>
       <r>   -6.5382    1.0000 </r>
       <r>   -6.5000    1.0000 </r>
       <r>   -6.4885    1.0000 </r>
       <r>   -6.4566    1.0000 </r>
       <r>   -6.4557    1.0000 </r>
       <r>   -6.4391    1.0000 </r>
       <r>   -6.4390    1.0000 </r>
       <r>   -6.4079    1.0000 </r>
       <r>   -6.4019    1.0000 </r>
       <r>   -6.3612    1.0000 </r>
       <r>   -6.3446    1.0000 </r>
       <r>   -6.3192    1.0000 </r>
       <r>   -6.1084    1.0000 </r>
       <r>   -5.9706    1.0000 </r>
       <r>   -5.9225    1.0000 </r>
       <r>   -5.8838    1.0000 </r>
       <r>   -5.8785    1.0000 </r>
       <r>   -5.8613    1.0000 </r>
       <r>   -5.7842    1.0000 </r>
       <r>   -5.7810    1.0000 </r>
       <r>   -5.5279    1.0000 </r>
       <r>   -5.2204    1.0000 </r>
       <r>   -5.2063    1.0000 </r>
       <r>   -5.1952    1.0000 </r>
       <r>   -5.1416    1.0000 </r>
       <r>   -5.1324    1.0000 </r>
       <r>   -5.1046    1.0000 </r>
       <r>   -4.9980    1.0000 </r>
       <r>   -4.9431    1.0000 </r>
       <r>   -4.9153    1.0000 </r>
       <r>   -4.9049    1.0000 </r>
       <r>   -4.8996    1.0000 </r>
       <r>   -4.7390    1.0000 </r>
       <r>   -1.3216    1.0000 </r>
       <r>   -1.2085    0.0000 </r>
       <r>    0.0549    0.0000 </r>
       <r>    0.2053    0.0000 </r>
       <r>    0.2403    0.0000 </r>
       <r>    0.2592    0.0000 </r>
       <r>    0.2626    0.0000 </r>
       <r>    0.3041    0.0000 </r>
       <r>    0.3053    0.0000 </r>
       <r>    0.3786    0.0000 </r>
       <r>    0.3949    0.0000 </r>
       <r>    0.4354    0.0000 </r>
       <r>    0.4798    0.0000 </r>
       <r>    0.5283    0.0000 </r>
       <r>    0.6125    0.0000 </r>
       <r>    0.7470    0.0000 </r>
       <r>    0.7478    0.0000 </r>
       <r>    0.7788    0.0000 </r>
       <r>    0.8060    0.0000 </r>
       <r>    0.8124    0.0000 </r>
       <r>    0.8278    0.0000 </r>
       <r>    0.8388    0.0000 </r>
       <r>    0.8592    0.0000 </r>
       <r>    0.8721    0.0000 </r>
       <r>    0.9797    0.0000 </r>
       <r>    1.0181    0.0000 </r>
       <r>    1.0586    0.0000 </r>
       <r>    1.1187    0.0000 </r>
       <r>    1.4953    0.0000 </r>
       <r>    1.6732    0.0000 </r>
       <r>    1.6974    0.0000 </r>
       <r>    1.7067    0.0000 </r>
       <r>    1.7242    0.0000 </r>
       <r>    1.7402    0.0000 </r>
       <r>    1.7442    0.0000 </r>
       <r>    1.8051    0.0000 </r>
       <r>    1.8070    0.0000 </r>
       <r>    1.8472    0.0000 </r>
       <r>    1.8474    0.0000 </r>
       <r>    1.8802    0.0000 </r>
       <r>    1.8831    0.0000 </r>
       <r>    1.9069    0.0000 </r>
       <r>    1.9095    0.0000 </r>
       <r>    1.9315    0.0000 </r>
       <r>    1.9786    0.0000 </r>
       <r>    2.0279    0.0000 </r>
       <r>    2.1066    0.0000 </r>
       <r>    2.1127    0.0000 </r>
       <r>    2.1216    0.0000 </r>
       <r>    2.1309    0.0000 </r>
       <r>    2.1401    0.0000 </r>
      </set>
     </set>
    </set>
   </array>
  </eigenvalues>
  <separator name="orbital magnetization" >
   <v name="MAGDIPOLOUT">      0.00000000      0.00000000      0.00000000</v>
  </separator>
  <dos>
   <i name="efermi">     -1.26982960 </i>
   <total>
    <array>
     <dimension dim="1">gridpoints</dimension>
     <dimension dim="2">spin</dimension>
     <field>energy</field>
     <field>total</field>
     <field>integrated</field>
     <set>
      <set comment="spin 1">
       <r>   -23.7775     0.0000     0.0000 </r>
       <r>   -23.6870     0.0000     0.0000 </r>
       <r>   -23.5965     0.0000     0.0000 </r>
       <r>   -23.5060     0.0000     0.0000 </r>
       <r>   -23.4155     0.0000     0.0000 </r>
       <r>   -23.3250     0.0000     0.0000 </r>
       <r>   -23.2345     0.0000     0.0000 </r>
       <r>   -23.1440     0.0000     0.0000 </r>
       <r>   -23.0534     0.0000     0.0000 </r>
       <r>   -22.9629     0.0000     0.0000 </r>
       <r>   -22.8724     0.0000     0.0000 </r>
       <r>   -22.7819     0.0000     0.0000 </r>
       <r>   -22.6914     0.0000     0.0000 </r>
       <r>   -22.6009     0.0000     0.0000 </r>
       <r>   -22.5104    22.0980     2.0000 </r>
       <r>   -22.4199     0.0000     2.0000 </r>
       <r>   -22.3294     0.0000     2.0000 </r>
       <r>   -22.2389     0.0000     2.0000 </r>
       <r>   -22.1484     0.0000     2.0000 </r>
       <r>   -22.0579     0.0000     2.0000 </r>
       <r>   -21.9674    22.0980     4.0000 </r>
       <r>   -21.8769     0.0000     4.0000 </r>
       <r>   -21.7864     0.5869     4.0531 </r>
       <r>   -21.6959    54.0211     8.9423 </r>
       <r>   -21.6054    42.6525    13.8603 </r>
       <r>   -21.5148     0.0000    14.0000 </r>
       <r>   -21.4243     0.0000    14.0000 </r>
       <r>   -21.3338     0.0000    14.0000 </r>
       <r>   -21.2433     5.3019    14.4799 </r>
       <r>   -21.1528     0.0000    16.0000 </r>
       <r>   -21.0623    18.8576    17.7067 </r>
       <r>   -20.9718    26.9274    20.4371 </r>
       <r>   -20.8813    28.0958    24.5428 </r>
       <r>   -20.7908     0.0000    26.0000 </r>
       <r>   -20.7003    32.0188    28.8979 </r>
       <r>   -20.6098    22.4286    32.0299 </r>
       <r>   -20.5193    43.8655    36.0000 </r>
       <r>   -20.4288    14.5894    37.3204 </r>
       <r>   -20.3383     0.0000    38.0000 </r>
       <r>   -20.2478     0.0000    38.0000 </r>
       <r>   -20.1573     0.0000    38.0000 </r>
       <r>   -20.0668     0.0000    38.0000 </r>
       <r>   -19.9762    17.1590    39.5530 </r>
       <r>   -19.8857    22.0980    42.0000 </r>
       <r>   -19.7952    19.6254    43.7762 </r>
       <r>   -19.7047    79.3155    51.1785 </r>
       <r>   -19.6142    65.1683    59.8981 </r>
       <r>   -19.5237     0.0001    60.0000 </r>
       <r>   -19.4332    22.0998    62.0002 </r>
       <r>   -19.3427    65.4442    67.9233 </r>
       <r>   -19.2522    23.7910    70.1532 </r>
       <r>   -19.1617     0.0000    72.0000 </r>
       <r>   -19.0712    22.0980    74.0000 </r>
       <r>   -18.9807    22.0066    75.9917 </r>
       <r>   -18.8902    22.3872    78.0262 </r>
       <r>   -18.7997    66.0049    84.0000 </r>
       <r>   -18.7092    82.8823    91.5013 </r>
       <r>   -18.6187    21.6360    94.0000 </r>
       <r>   -18.5282     0.0000    94.0000 </r>
       <r>   -18.4377    22.0589    95.9965 </r>
       <r>   -18.3471     0.0000    96.0000 </r>
       <r>   -18.2566     0.0000    96.0000 </r>
       <r>   -18.1661     0.0000    96.0000 </r>
       <r>   -18.0756     0.0000    96.0000 </r>
       <r>   -17.9851     0.0000    96.0000 </r>
       <r>   -17.8946     0.0000    96.0000 </r>
       <r>   -17.8041     0.0000    96.0000 </r>
       <r>   -17.7136     0.0000    96.0000 </r>
       <r>   -17.6231     0.0000    96.0000 </r>
       <r>   -17.5326     0.0000    96.0000 </r>
       <r>   -17.4421     0.0000    96.0000 </r>
       <r>   -17.3516     0.0000    96.0000 </r>
       <r>   -17.2611     0.0000    96.0000 </r>
       <r>   -17.1706     0.0000    96.0000 </r>
       <r>   -17.0801     0.0000    96.0000 </r>
       <r>   -16.9896     0.0000    96.0000 </r>
       <r>   -16.8991     0.0000    96.0000 </r>
       <r>   -16.8085     0.0000    96.0000 </r>
       <r>   -16.7180     0.0000    96.0000 </r>
       <r>   -16.6275     0.0000    96.0000 </r>
       <r>   -16.5370     0.0000    96.0000 </r>
       <r>   -16.4465     0.0000    96.0000 </r>
       <r>   -16.3560     0.0000    96.0000 </r>
       <r>   -16.2655     0.0000    96.0000 </r>
       <r>   -16.1750     0.0000    96.0000 </r>
       <r>   -16.0845     0.0000    96.0000 </r>
       <r>   -15.9940     0.0000    96.0000 </r>
       <r>   -15.9035     0.0000    96.0000 </r>
       <r>   -15.8130     0.0000    96.0000 </r>
       <r>   -15.7225     0.0000    96.0000 </r>
       <r>   -15.6320     0.0000    96.0000 </r>
       <r>   -15.5415     0.0000    96.0000 </r>
       <r>   -15.4510     0.0000    96.0000 </r>
       <r>   -15.3605     0.0000    96.0000 </r>
       <r>   -15.2699     0.0000    96.0000 </r>
       <r>   -15.1794     0.0000    96.0000 </r>
       <r>   -15.0889     0.0000    96.0000 </r>
       <r>   -14.9984     0.0000    96.0000 </r>
       <r>   -14.9079     0.0000    96.0000 </r>
       <r>   -14.8174     0.0000    96.0000 </r>
       <r>   -14.7269     0.0000    96.0000 </r>
       <r>   -14.6364     0.0000    96.0000 </r>
       <r>   -14.5459     0.0000    96.0000 </r>
       <r>   -14.4554     0.0000    96.0000 </r>
       <r>   -14.3649     0.0000    96.0000 </r>
       <r>   -14.2744     0.0000    96.0000 </r>
       <r>   -14.1839     0.0000    96.0000 </r>
       <r>   -14.0934    22.0980    98.0000 </r>
       <r>   -14.0029     0.0000    98.0000 </r>
       <r>   -13.9124     0.0000    98.0000 </r>
       <r>   -13.8219     0.0000    98.0000 </r>
       <r>   -13.7313     0.0000    98.0000 </r>
       <r>   -13.6408     0.0000    98.0000 </r>
       <r>   -13.5503     0.0000    98.0000 </r>
       <r>   -13.4598     0.0000    98.0000 </r>
       <r>   -13.3693     0.0000    98.0000 </r>
       <r>   -13.2788     0.0000    98.0000 </r>
       <r>   -13.1883     5.4027    98.4890 </r>
       <r>   -13.0978    59.8758   105.4191 </r>
       <r>   -13.0073    41.2970   109.7429 </r>
       <r>   -12.9168    66.1877   115.9904 </r>
       <r>   -12.8263     0.0209   116.0019 </r>
       <r>   -12.7358    44.1745   119.9999 </r>
       <r>   -12.6453     0.0000   120.0000 </r>
       <r>   -12.5548    22.0980   122.0000 </r>
       <r>   -12.4643    44.1738   125.9980 </r>
       <r>   -12.3738    15.8716   127.4365 </r>
       <r>   -12.2833    43.6732   131.9527 </r>
       <r>   -12.1927     0.2234   132.0202 </r>
       <r>   -12.1022    21.8746   134.0000 </r>
       <r>   -12.0117     0.0000   134.0000 </r>
       <r>   -11.9212     0.0458   134.0041 </r>
       <r>   -11.8307    44.1503   138.0000 </r>
       <r>   -11.7402    71.3538   144.4579 </r>
       <r>   -11.6497    40.6346   149.6777 </r>
       <r>   -11.5592    22.1993   152.0484 </r>
       <r>   -11.4687    21.5637   154.0000 </r>
       <r>   -11.3782    22.0980   156.0000 </r>
       <r>   -11.2877     0.0000   156.0000 </r>
       <r>   -11.1972    16.9475   157.5338 </r>
       <r>   -11.1067    21.8976   159.9819 </r>
       <r>   -11.0162    44.1849   164.0000 </r>
       <r>   -10.9257    23.1672   166.0968 </r>
       <r>   -10.8352    21.0289   168.0000 </r>
       <r>   -10.7447     0.0000   168.0000 </r>
       <r>   -10.6542    22.0980   170.0000 </r>
       <r>   -10.5636     0.0000   170.0000 </r>
       <r>   -10.4731     1.2866   170.1164 </r>
       <r>   -10.3826    42.9096   174.0000 </r>
       <r>   -10.2921    22.0980   176.0000 </r>
       <r>   -10.2016    39.6176   179.5856 </r>
       <r>   -10.1111     0.0000   180.0000 </r>
       <r>   -10.0206     0.0000   180.0000 </r>
       <r>    -9.9301     0.0000   180.0000 </r>
       <r>    -9.8396    22.0980   182.0000 </r>
       <r>    -9.7491    43.4747   185.9347 </r>
       <r>    -9.6586    44.0901   189.9909 </r>
       <r>    -9.5681    21.9971   191.9909 </r>
       <r>    -9.4776    44.5057   196.0282 </r>
       <r>    -9.3871    21.7397   198.0000 </r>
       <r>    -9.2966    46.4323   202.2024 </r>
       <r>    -9.2061   152.2793   217.7822 </r>
       <r>    -9.1156    76.4978   228.9943 </r>
       <r>    -9.0250    43.6644   235.9969 </r>
       <r>    -8.9345    22.0978   238.0000 </r>
       <r>    -8.8440    12.5382   239.1348 </r>
       <r>    -8.7535    22.0980   242.0000 </r>
       <r>    -8.6630     2.0292   242.1837 </r>
       <r>    -8.5725     0.0000   244.0000 </r>
       <r>    -8.4820    30.4052   246.7518 </r>
       <r>    -8.3915    22.0980   250.0000 </r>
       <r>    -8.3010    22.0972   251.9999 </r>
       <r>    -8.2105    24.5371   254.2207 </r>
       <r>    -8.1200    80.4947   263.3578 </r>
       <r>    -8.0295    20.3143   265.8386 </r>
       <r>    -7.9390    43.2667   269.9159 </r>
       <r>    -7.8485    38.4351   273.4786 </r>
       <r>    -7.7580    66.3104   282.0015 </r>
       <r>    -7.6675   112.1176   292.1488 </r>
       <r>    -7.5770    44.1951   298.0000 </r>
       <r>    -7.4864     0.0000   298.0000 </r>
       <r>    -7.3959    67.0829   304.0714 </r>
       <r>    -7.3054    43.4072   308.0000 </r>
       <r>    -7.2149    22.0980   310.0000 </r>
       <r>    -7.1244     0.0000   310.0000 </r>
       <r>    -7.0339     0.0000   310.0000 </r>
       <r>    -6.9434     0.0000   310.0000 </r>
       <r>    -6.8529     0.0534   310.0048 </r>
       <r>    -6.7624    28.8783   312.6185 </r>
       <r>    -6.6719     0.0000   314.0000 </r>
       <r>    -6.5814    44.1935   317.9998 </r>
       <r>    -6.4909    72.1806   324.5328 </r>
       <r>    -6.4004   120.2062   336.8794 </r>
       <r>    -6.3099    64.2418   343.8143 </r>
       <r>    -6.2194     0.0000   344.0000 </r>
       <r>    -6.1289     0.0427   344.0039 </r>
       <r>    -6.0384    22.0553   346.0000 </r>
       <r>    -5.9478    22.0872   347.9990 </r>
       <r>    -5.8573    82.0014   355.4219 </r>
       <r>    -5.7668    43.5468   359.9412 </r>
       <r>    -5.6763     0.0000   360.0000 </r>
       <r>    -5.5858     0.0000   360.0000 </r>
       <r>    -5.4953    22.0980   362.0000 </r>
       <r>    -5.4048     0.0000   362.0000 </r>
       <r>    -5.3143     0.0000   362.0000 </r>
       <r>    -5.2238     7.1610   362.6481 </r>
       <r>    -5.1333    73.5031   370.6656 </r>
       <r>    -5.0428    22.0975   374.0000 </r>
       <r>    -4.9523    24.2383   376.1937 </r>
       <r>    -4.8618    66.2941   384.0000 </r>
       <r>    -4.7713     0.0001   384.0000 </r>
       <r>    -4.6808    22.0980   386.0000 </r>
       <r>    -4.5903     0.0000   386.0000 </r>
       <r>    -4.4998     0.0000   386.0000 </r>
       <r>    -4.4092     0.0000   386.0000 </r>
       <r>    -4.3187     0.0000   386.0000 </r>
       <r>    -4.2282     0.0000   386.0000 </r>
       <r>    -4.1377     0.0000   386.0000 </r>
       <r>    -4.0472     0.0000   386.0000 </r>
       <r>    -3.9567     0.0000   386.0000 </r>
       <r>    -3.8662     0.0000   386.0000 </r>
       <r>    -3.7757     0.0000   386.0000 </r>
       <r>    -3.6852     0.0000   386.0000 </r>
       <r>    -3.5947     0.0000   386.0000 </r>
       <r>    -3.5042     0.0000   386.0000 </r>
       <r>    -3.4137     0.0000   386.0000 </r>
       <r>    -3.3232     0.0000   386.0000 </r>
       <r>    -3.2327     0.0000   386.0000 </r>
       <r>    -3.1422     0.0000   386.0000 </r>
       <r>    -3.0517     0.0000   386.0000 </r>
       <r>    -2.9612     0.0000   386.0000 </r>
       <r>    -2.8707     0.0000   386.0000 </r>
       <r>    -2.7801     0.0000   386.0000 </r>
       <r>    -2.6896     0.0000   386.0000 </r>
       <r>    -2.5991     0.0000   386.0000 </r>
       <r>    -2.5086     0.0000   386.0000 </r>
       <r>    -2.4181     0.0000   386.0000 </r>
       <r>    -2.3276     0.0000   386.0000 </r>
       <r>    -2.2371     0.0000   386.0000 </r>
       <r>    -2.1466     0.0000   386.0000 </r>
       <r>    -2.0561     0.0000   386.0000 </r>
       <r>    -1.9656     0.0000   386.0000 </r>
       <r>    -1.8751     0.0000   386.0000 </r>
       <r>    -1.7846     0.0000   386.0000 </r>
       <r>    -1.6941     0.0000   386.0000 </r>
       <r>    -1.6036     0.0000   386.0000 </r>
       <r>    -1.5131     0.0000   386.0000 </r>
       <r>    -1.4226     0.0000   386.0000 </r>
       <r>    -1.3321     1.5591   386.1411 </r>
       <r>    -1.2415     0.0000   388.0000 </r>
       <r>    -1.1510    22.0980   390.0000 </r>
       <r>    -1.0605     0.0000   390.0000 </r>
       <r>    -0.9700     0.0000   390.0000 </r>
       <r>    -0.8795     0.0000   390.0000 </r>
       <r>    -0.7890     0.0000   390.0000 </r>
       <r>    -0.6985     0.0000   390.0000 </r>
       <r>    -0.6080     0.0000   390.0000 </r>
       <r>    -0.5175     0.0000   390.0000 </r>
       <r>    -0.4270     0.0000   390.0000 </r>
       <r>    -0.3365     0.0000   390.0000 </r>
       <r>    -0.2460     0.0000   390.0000 </r>
       <r>    -0.1555     0.0000   390.0000 </r>
       <r>    -0.0650     0.0000   390.0000 </r>
       <r>     0.0255     0.0004   390.0000 </r>
       <r>     0.1160    22.0977   392.0000 </r>
       <r>     0.2065    12.5933   393.1398 </r>
       <r>     0.2971    72.4999   400.5617 </r>
       <r>     0.3876    23.1524   406.0954 </r>
       <r>     0.4781    31.0620   410.8113 </r>
       <r>     0.5686    22.0980   414.0000 </r>
       <r>     0.6591    22.0980   416.0000 </r>
       <r>     0.7496    27.4384   418.4833 </r>
       <r>     0.8401   100.2314   429.0716 </r>
       <r>     0.9306    44.1186   434.0000 </r>
       <r>     1.0211    36.7392   437.3251 </r>
       <r>     1.1116    25.5516   440.3126 </r>
       <r>     1.2021     0.0000   442.0000 </r>
       <r>     1.2926     0.0000   442.0000 </r>
       <r>     1.3831     0.0000   442.0000 </r>
       <r>     1.4736     0.0237   442.0021 </r>
       <r>     1.5641    22.0743   444.0000 </r>
       <r>     1.6546     0.0962   444.0087 </r>
       <r>     1.7451   117.3239   454.6272 </r>
       <r>     1.8357    46.4014   460.1996 </r>
       <r>     1.9262   135.0995   472.4269 </r>
       <r>     2.0167    23.3183   476.1104 </r>
       <r>     2.1072    37.8565   479.5367 </r>
       <r>     2.1977    65.8315   488.0000 </r>
       <r>     2.2882     0.0000   488.0000 </r>
       <r>     2.3787     0.0000   488.0000 </r>
       <r>     2.4692     0.0000   488.0000 </r>
       <r>     2.5597     0.0000   488.0000 </r>
       <r>     2.6502     0.0000   488.0000 </r>
       <r>     2.7407     0.0000   488.0000 </r>
       <r>     2.8312     0.0000   488.0000 </r>
       <r>     2.9217     0.0000   488.0000 </r>
       <r>     3.0122     0.0000   488.0000 </r>
       <r>     3.1027     0.0000   488.0000 </r>
       <r>     3.1932     0.0000   488.0000 </r>
       <r>     3.2837     0.0000   488.0000 </r>
       <r>     3.3742     0.0000   488.0000 </r>
      </set>
     </set>
    </array>
   </total>
  </dos>
 </calculation>
 <structure name="finalpos" >
  <crystal>
   <varray name="basis" >
    <v>      17.59966831       0.00000000       0.00000000 </v>
    <v>      -8.79983416      15.24175986       0.00000000 </v>
    <v>       0.00000000       0.00000000      19.92151445 </v>
   </varray>
   <i name="volume">   5343.94461817 </i>
   <varray name="rec_basis" >
    <v>       0.05681925       0.03280461       0.00000000 </v>
    <v>       0.00000000       0.06560922       0.00000000 </v>
    <v>       0.00000000       0.00000000       0.05019699 </v>
   </varray>
  </crystal>
  <varray name="positions" >
   <v>       0.99943010       0.00005992       0.50000000 </v>
   <v>       0.14164706       0.99871895       0.50000000 </v>
   <v>       0.28492260       0.99841663       0.50000000 </v>
   <v>       0.42850047       0.99871895       0.50000000 </v>
   <v>       0.57205839       0.00005992       0.50000000 </v>
   <v>       0.71530655       0.00214292       0.50000000 </v>
   <v>       0.85826494       0.00214292       0.50000000 </v>
   <v>       0.00080792       0.14408264       0.50000000 </v>
   <v>       0.14259355       0.14244783       0.50000000 </v>
   <v>       0.28470221       0.14112972       0.50000000 </v>
   <v>       0.42785608       0.14112972       0.50000000 </v>
   <v>       0.57128286       0.14244783       0.50000000 </v>
   <v>       0.71470329       0.14408264       0.50000000 </v>
   <v>       0.85805263       0.14467669       0.50000000 </v>
   <v>       0.00095476       0.28713011       0.50000000 </v>
   <v>       0.14372552       0.28645370       0.50000000 </v>
   <v>       0.28540977       0.28469374       0.50000000 </v>
   <v>       0.42724431       0.28306005       0.50000000 </v>
   <v>       0.57071254       0.28469374       0.50000000 </v>
   <v>       0.71415674       0.28645370       0.50000000 </v>
   <v>       0.85760392       0.28713011       0.50000000 </v>
   <v>       0.00054479       0.42966101       0.50000000 </v>
   <v>       0.14422690       0.42957551       0.50000000 </v>
   <v>       0.28730213       0.42918005       0.50000000 </v>
   <v>       0.42797654       0.42569726       0.50000000 </v>
   <v>       0.56914930       0.42569726       0.50000000 </v>
   <v>       0.71330650       0.42918005       0.50000000 </v>
   <v>       0.85677719       0.42957551       0.50000000 </v>
   <v>       0.99928255       0.57181462       0.50000000 </v>
   <v>       0.14396064       0.57181462       0.50000000 </v>
   <v>       0.28862787       0.57181625       0.50000000 </v>
   <v>       0.43313209       0.57215564       0.50000000 </v>
   <v>       0.71045212       0.57215564       0.50000000 </v>
   <v>       0.85461695       0.57181625       0.50000000 </v>
   <v>       0.99707234       0.71370518       0.50000000 </v>
   <v>       0.14255519       0.71368182       0.50000000 </v>
   <v>       0.28806142       0.71370518       0.50000000 </v>
   <v>       0.43464191       0.71382540       0.50000000 </v>
   <v>       0.58510826       0.71626937       0.50000000 </v>
   <v>       0.70258968       0.71626937       0.50000000 </v>
   <v>       0.85061206       0.71382540       0.50000000 </v>
   <v>       0.99777175       0.85613493       0.50000000 </v>
   <v>       0.14160898       0.85591288       0.50000000 </v>
   <v>       0.28573247       0.85591288       0.50000000 </v>
   <v>       0.42979175       0.85613493       0.50000000 </v>
   <v>       0.57342541       0.85701871       0.50000000 </v>
   <v>       0.71640633       0.86138410       0.50000000 </v>
   <v>       0.85559006       0.85758690       0.50000000 </v>
   <v>       0.04754270       0.09547788       0.50000000 </v>
   <v>       0.18957833       0.09405657       0.50000000 </v>
   <v>       0.33254182       0.09365506       0.50000000 </v>
   <v>       0.47590681       0.09405657       0.50000000 </v>
   <v>       0.61936376       0.09547788       0.50000000 </v>
   <v>       0.76280004       0.09719274       0.50000000 </v>
   <v>       0.90582126       0.09719274       0.50000000 </v>
   <v>       0.04854983       0.23934281       0.50000000 </v>
   <v>       0.19048138       0.23782962       0.50000000 </v>
   <v>       0.33234878       0.23634667       0.50000000 </v>
   <v>       0.47542646       0.23634667       0.50000000 </v>
   <v>       0.61877681       0.23782962       0.50000000 </v>
   <v>       0.76222155       0.23934281       0.50000000 </v>
   <v>       0.90562797       0.23982737       0.50000000 </v>
   <v>       0.04871288       0.38232824       0.50000000 </v>
   <v>       0.19188940       0.38184213       0.50000000 </v>
   <v>       0.33352206       0.38013969       0.50000000 </v>
   <v>       0.47472270       0.37801683       0.50000000 </v>
   <v>       0.61804620       0.38013969       0.50000000 </v>
   <v>       0.76138130       0.38184213       0.50000000 </v>
   <v>       0.90504393       0.38232824       0.50000000 </v>
   <v>       0.04810654       0.52478452       0.50000000 </v>
   <v>       0.19263929       0.52476864       0.50000000 </v>
   <v>       0.33696521       0.52455433       0.50000000 </v>
   <v>       0.47833704       0.52146721       0.50000000 </v>
   <v>       0.61455874       0.52146721       0.50000000 </v>
   <v>       0.75901769       0.52455433       0.50000000 </v>
   <v>       0.90355792       0.52476864       0.50000000 </v>
   <v>       0.04642473       0.66685228       0.50000000 </v>
   <v>       0.19185612       0.66685228       0.50000000 </v>
   <v>       0.33777931       0.66688794       0.50000000 </v>
   <v>       0.48615700       0.66710760       0.50000000 </v>
   <v>       0.75237918       0.66710760       0.50000000 </v>
   <v>       0.90053720       0.66688794       0.50000000 </v>
   <v>       0.04582562       0.80879365       0.50000000 </v>
   <v>       0.19009580       0.80876303       0.50000000 </v>
   <v>       0.33439660       0.80879365       0.50000000 </v>
   <v>       0.47844872       0.80897069       0.50000000 </v>
   <v>       0.62209487       0.81129474       0.50000000 </v>
   <v>       0.76062845       0.81129474       0.50000000 </v>
   <v>       0.90195054       0.80897069       0.50000000 </v>
   <v>       0.04629157       0.95154386       0.50000000 </v>
   <v>       0.18948291       0.95113037       0.50000000 </v>
   <v>       0.33307603       0.95113037       0.50000000 </v>
   <v>       0.47668087       0.95154386       0.50000000 </v>
   <v>       0.62015751       0.95313740       0.50000000 </v>
   <v>       0.76355772       0.95568687       0.50000000 </v>
   <v>       0.90440847       0.95313740       0.50000000 </v>
   <v>       0.56830873       0.56518888       0.50000000 </v>
  </varray>
 </structure>
</modeling>
