<?xml version="1.0" encoding="ISO-8859-1"?>
<modeling>
 <generator>
  <i name="program" type="string">vasp </i>
  <i name="version" type="string">5.4.4.18Apr17-6-g9f103f2a35  </i>
  <i name="subversion" type="string">(build Oct 18 2020 22:16:12) gamma-only         parallel </i>
  <i name="platform" type="string">UA-vaughan-2020a </i>
  <i name="date" type="string">2023 03 22 </i>
  <i name="time" type="string">01:12:50 </i>
 </generator>
 <incar>
  <i type="string" name="PREC">accurate</i>
  <i type="int" name="IALGO">    38</i>
  <i type="logical" name="ADDGRID"> T  </i>
  <i type="int" name="NELMIN">     5</i>
  <i type="int" name="IBRION">    -1</i>
  <i name="EDIFF">      0.00000001</i>
  <i name="EDIFFG">     -0.00000001</i>
  <i type="int" name="NSW">     0</i>
  <i type="int" name="ISIF">     2</i>
  <i name="ENCUT">    500.00000000</i>
  <i type="logical" name="LREAL"> F  </i>
  <i type="int" name="ISMEAR">     0</i>
  <i name="SIGMA">      0.01000000</i>
  <i type="logical" name="LWAVE"> F  </i>
  <i type="logical" name="LCHARG"> F  </i>
  <v type="int" name="KPOINT_BSE">    -1     0     0     0</v>
 </incar>
 <structure name="primitive_cell" >
  <crystal>
   <varray name="basis" >
    <v>      17.59966831       0.00000000       0.00000000 </v>
    <v>      -8.79983416      15.24175986       0.00000000 </v>
    <v>       0.00000000       0.00000000      19.92151445 </v>
   </varray>
   <i name="volume">   5343.94461817 </i>
   <varray name="rec_basis" >
    <v>       0.05681925       0.03280461       0.00000000 </v>
    <v>       0.00000000       0.06560922       0.00000000 </v>
    <v>       0.00000000       0.00000000       0.05019699 </v>
   </varray>
  </crystal>
  <varray name="positions" >
   <v>      -0.00056990       0.00005992      -0.50000000 </v>
   <v>      -0.09559153      -0.04686260      -0.50000000 </v>
   <v>       0.04629157      -0.04845614      -0.50000000 </v>
   <v>       0.04754270       0.09547788      -0.50000000 </v>
   <v>      -0.14173506       0.00214292      -0.50000000 </v>
   <v>       0.14259355       0.14244783      -0.50000000 </v>
   <v>       0.14164706      -0.00128105      -0.50000000 </v>
   <v>      -0.00222825      -0.14386507      -0.50000000 </v>
   <v>      -0.14440994      -0.14241310      -0.50000000 </v>
   <v>       0.00080792       0.14408264      -0.50000000 </v>
   <v>       0.18957833       0.09405657      -0.50000000 </v>
   <v>      -0.09417874       0.09719274      -0.50000000 </v>
   <v>      -0.09804946      -0.19102931      -0.50000000 </v>
   <v>      -0.23644228      -0.04431313      -0.50000000 </v>
   <v>      -0.23937155      -0.18870526      -0.50000000 </v>
   <v>       0.19048138       0.23782962      -0.50000000 </v>
   <v>       0.04582562      -0.19120635      -0.50000000 </v>
   <v>       0.18948291      -0.04886963      -0.50000000 </v>
   <v>       0.04854983       0.23934281      -0.50000000 </v>
   <v>      -0.28359367      -0.13861590      -0.50000000 </v>
   <v>       0.28470221       0.14112972      -0.50000000 </v>
   <v>      -0.14194737       0.14467669      -0.50000000 </v>
   <v>      -0.14938794      -0.28617460      -0.50000000 </v>
   <v>       0.14160898      -0.14408712      -0.50000000 </v>
   <v>       0.14372552       0.28645370      -0.50000000 </v>
   <v>      -0.28469345       0.00214292      -0.50000000 </v>
   <v>      -0.00292766      -0.28629482      -0.50000000 </v>
   <v>       0.28540977       0.28469374      -0.50000000 </v>
   <v>       0.00095476       0.28713011      -0.50000000 </v>
   <v>       0.28492260      -0.00158337      -0.50000000 </v>
   <v>      -0.29741032      -0.28373063      -0.50000000 </v>
   <v>      -0.09946280      -0.33311206      -0.50000000 </v>
   <v>       0.33234878       0.23634667      -0.50000000 </v>
   <v>      -0.23719996       0.09719274      -0.50000000 </v>
   <v>       0.33254182       0.09365506      -0.50000000 </v>
   <v>      -0.09437203       0.23982737      -0.50000000 </v>
   <v>      -0.24762082      -0.33289240      -0.50000000 </v>
   <v>      -0.37828132      -0.18870526       0.49962381 </v>
   <v>       0.19188940       0.38184213      -0.50000000 </v>
   <v>       0.19009580      -0.19123697      -0.50000000 </v>
   <v>      -0.37984249      -0.04686260      -0.50000000 </v>
   <v>       0.04642473      -0.33314772      -0.50000000 </v>
   <v>       0.33352206       0.38013969      -0.50000000 </v>
   <v>       0.04871288       0.38232824      -0.50000000 </v>
   <v>       0.33307603      -0.04886963      -0.50000000 </v>
   <v>      -0.41489174      -0.28373063      -0.50000000 </v>
   <v>      -0.42657459      -0.14241310      -0.50000000 </v>
   <v>       0.42724431       0.28306005      -0.50000000 </v>
   <v>      -0.14538305      -0.42818375      -0.50000000 </v>
   <v>      -0.28529671       0.14408264      -0.50000000 </v>
   <v>      -0.28954788      -0.42784436      -0.50000000 </v>
   <v>       0.42785608       0.14112972      -0.50000000 </v>
   <v>      -0.14239608       0.28713011      -0.50000000 </v>
   <v>       0.14422690       0.42957551      -0.50000000 </v>
   <v>       0.28730213       0.42918005      -0.50000000 </v>
   <v>       0.14255519      -0.28631818      -0.50000000 </v>
   <v>       0.28573247      -0.14408712      -0.50000000 </v>
   <v>      -0.24098231      -0.47544567      -0.50000000 </v>
   <v>       0.47542646       0.23634667      -0.50000000 </v>
   <v>      -0.23777845       0.23934281      -0.50000000 </v>
   <v>       0.42797654       0.42569726      -0.50000000 </v>
   <v>      -0.42794161       0.00005992      -0.50000000 </v>
   <v>      -0.00071745      -0.42818538      -0.50000000 </v>
   <v>       0.00054479       0.42966101      -0.50000000 </v>
   <v>       0.42850047      -0.00128105      -0.50000000 </v>
   <v>      -0.43169127      -0.43481112      -0.50000000 </v>
   <v>       0.47472270       0.37801683      -0.50000000 </v>
   <v>      -0.09644208      -0.47523136      -0.50000000 </v>
   <v>      -0.38063624       0.09547788      -0.50000000 </v>
   <v>       0.47590681       0.09405657      -0.50000000 </v>
   <v>      -0.09495607       0.38232824      -0.50000000 </v>
   <v>      -0.38544126      -0.47853279      -0.50000000 </v>
   <v>       0.48615700      -0.33289240      -0.50000000 </v>
   <v>       0.47844872      -0.19102931      -0.50000000 </v>
   <v>       0.19263929      -0.47523136      -0.50000000 </v>
   <v>       0.33696521      -0.47544567      -0.50000000 </v>
   <v>       0.19185612      -0.33314772      -0.50000000 </v>
   <v>       0.33439660      -0.19120635      -0.50000000 </v>
   <v>       0.43464191      -0.28617460      -0.50000000 </v>
   <v>      -0.28669350       0.42918005      -0.50000000 </v>
   <v>      -0.42928746       0.28469374      -0.50000000 </v>
   <v>      -0.28584326       0.28645370      -0.50000000 </v>
   <v>       0.28862787      -0.42818375      -0.50000000 </v>
   <v>       0.28806142      -0.28629482      -0.50000000 </v>
   <v>       0.47668087      -0.04845614      -0.50000000 </v>
   <v>       0.47833704      -0.47853279      -0.50000000 </v>
   <v>       0.04810654      -0.47521548      -0.50000000 </v>
   <v>       0.43313209      -0.42784436      -0.50000000 </v>
   <v>       0.42979175      -0.14386507      -0.50000000 </v>
   <v>      -0.43085070       0.42569726      -0.50000000 </v>
   <v>      -0.14322281       0.42957551      -0.50000000 </v>
   <v>      -0.42871714       0.14244783      -0.50000000 </v>
   <v>       0.14396064      -0.42818538      -0.50000000 </v>
   <v>      -0.23861870       0.38184213      -0.50000000 </v>
   <v>      -0.38122319       0.23782962      -0.50000000 </v>
   <v>      -0.38195380       0.38013969      -0.50000000 </v>
   <v>       0.33777931      -0.33311206      -0.50000000 </v>
  </varray>
 </structure>
 <varray name="primitive_index" >
  <v type="int" >        1 </v>
  <v type="int" >       96 </v>
  <v type="int" >       90 </v>
  <v type="int" >       49 </v>
  <v type="int" >        7 </v>
  <v type="int" >        9 </v>
  <v type="int" >        2 </v>
  <v type="int" >       42 </v>
  <v type="int" >       48 </v>
  <v type="int" >        8 </v>
  <v type="int" >       50 </v>
  <v type="int" >       55 </v>
  <v type="int" >       89 </v>
  <v type="int" >       95 </v>
  <v type="int" >       88 </v>
  <v type="int" >       57 </v>
  <v type="int" >       83 </v>
  <v type="int" >       91 </v>
  <v type="int" >       56 </v>
  <v type="int" >       47 </v>
  <v type="int" >       10 </v>
  <v type="int" >       14 </v>
  <v type="int" >       41 </v>
  <v type="int" >       43 </v>
  <v type="int" >       16 </v>
  <v type="int" >        6 </v>
  <v type="int" >       35 </v>
  <v type="int" >       17 </v>
  <v type="int" >       15 </v>
  <v type="int" >        3 </v>
  <v type="int" >       40 </v>
  <v type="int" >       82 </v>
  <v type="int" >       58 </v>
  <v type="int" >       54 </v>
  <v type="int" >       51 </v>
  <v type="int" >       62 </v>
  <v type="int" >       81 </v>
  <v type="int" >       87 </v>
  <v type="int" >       64 </v>
  <v type="int" >       84 </v>
  <v type="int" >       94 </v>
  <v type="int" >       77 </v>
  <v type="int" >       65 </v>
  <v type="int" >       63 </v>
  <v type="int" >       92 </v>
  <v type="int" >       39 </v>
  <v type="int" >       46 </v>
  <v type="int" >       18 </v>
  <v type="int" >       34 </v>
  <v type="int" >       13 </v>
  <v type="int" >       33 </v>
  <v type="int" >       11 </v>
  <v type="int" >       21 </v>
  <v type="int" >       23 </v>
  <v type="int" >       24 </v>
  <v type="int" >       36 </v>
  <v type="int" >       44 </v>
  <v type="int" >       75 </v>
  <v type="int" >       59 </v>
  <v type="int" >       61 </v>
  <v type="int" >       25 </v>
  <v type="int" >        5 </v>
  <v type="int" >       29 </v>
  <v type="int" >       22 </v>
  <v type="int" >        4 </v>
  <v type="int" >       97 </v>
  <v type="int" >       66 </v>
  <v type="int" >       76 </v>
  <v type="int" >       53 </v>
  <v type="int" >       52 </v>
  <v type="int" >       69 </v>
  <v type="int" >       74 </v>
  <v type="int" >       80 </v>
  <v type="int" >       86 </v>
  <v type="int" >       71 </v>
  <v type="int" >       72 </v>
  <v type="int" >       78 </v>
  <v type="int" >       85 </v>
  <v type="int" >       38 </v>
  <v type="int" >       27 </v>
  <v type="int" >       19 </v>
  <v type="int" >       20 </v>
  <v type="int" >       31 </v>
  <v type="int" >       37 </v>
  <v type="int" >       93 </v>
  <v type="int" >       73 </v>
  <v type="int" >       70 </v>
  <v type="int" >       32 </v>
  <v type="int" >       45 </v>
  <v type="int" >       26 </v>
  <v type="int" >       28 </v>
  <v type="int" >       12 </v>
  <v type="int" >       30 </v>
  <v type="int" >       68 </v>
  <v type="int" >       60 </v>
  <v type="int" >       67 </v>
  <v type="int" >       79 </v>
 </varray>
 <kpoints>
  <generation param="Gamma">
   <v type="int" name="divisions">       1        1        1 </v>
   <v name="usershift">      0.00000000       0.00000000       0.00000000 </v>
   <v name="genvec1">      1.00000000      -0.00000000       0.00000000 </v>
   <v name="genvec2">      0.00000000       1.00000000       0.00000000 </v>
   <v name="genvec3">      0.00000000       0.00000000       1.00000000 </v>
   <v name="shift">      0.00000000       0.00000000       0.00000000 </v>
  </generation>
  <varray name="kpointlist" >
   <v>       0.00000000       0.00000000       0.00000000 </v>
  </varray>
  <varray name="weights" >
   <v>       1.00000000 </v>
  </varray>
 </kpoints>
 <parameters>
  <separator name="general" >
   <i type="string" name="SYSTEM">unknown system</i>
   <i type="logical" name="LCOMPAT"> F  </i>
  </separator>
  <separator name="electronic" >
   <i type="string" name="PREC">accura</i>
   <i name="ENMAX">    500.00000000</i>
   <i name="ENAUG">    644.87300000</i>
   <i name="EDIFF">      0.00000001</i>
   <i type="int" name="IALGO">    38</i>
   <i type="int" name="IWAVPR">    10</i>
   <i type="int" name="NBANDS">   244</i>
   <i name="NELECT">    388.00000000</i>
   <i type="int" name="TURBO">     0</i>
   <i type="int" name="IRESTART">     0</i>
   <i type="int" name="NREBOOT">     0</i>
   <i type="int" name="NMIN">     0</i>
   <i name="EREF">      0.00000000</i>
   <separator name="electronic smearing" >
    <i type="int" name="ISMEAR">     0</i>
    <i name="SIGMA">      0.01000000</i>
    <i name="KSPACING">      0.50000000</i>
    <i type="logical" name="KGAMMA"> T  </i>
   </separator>
   <separator name="electronic projectors" >
    <i type="logical" name="LREAL"> F  </i>
    <v name="ROPT">      0.00000000      0.00000000      0.00000000</v>
    <i type="int" name="LMAXPAW">  -100</i>
    <i type="int" name="LMAXMIX">     2</i>
    <i type="logical" name="NLSPLINE"> F  </i>
   </separator>
   <separator name="electronic startup" >
    <i type="int" name="ISTART">     0</i>
    <i type="int" name="ICHARG">     2</i>
    <i type="int" name="INIWAV">     1</i>
   </separator>
   <separator name="electronic spin" >
    <i type="int" name="ISPIN">     1</i>
    <i type="logical" name="LNONCOLLINEAR"> F  </i>
    <v name="MAGMOM">      1.00000000      1.00000000      1.00000000      1.00000000      1.00000000      1.00000000      1.00000000      1.00000000      1.00000000      1.00000000      1.00000000      1.00000000      1.00000000      1.00000000      1.00000000      1.00000000      1.00000000      1.00000000      1.00000000      1.00000000
      1.00000000      1.00000000      1.00000000      1.00000000      1.00000000      1.00000000      1.00000000      1.00000000      1.00000000      1.00000000      1.00000000      1.00000000      1.00000000      1.00000000      1.00000000      1.00000000      1.00000000      1.00000000      1.00000000      1.00000000
      1.00000000      1.00000000      1.00000000      1.00000000      1.00000000      1.00000000      1.00000000      1.00000000      1.00000000      1.00000000      1.00000000      1.00000000      1.00000000      1.00000000      1.00000000      1.00000000      1.00000000      1.00000000      1.00000000      1.00000000
      1.00000000      1.00000000      1.00000000      1.00000000      1.00000000      1.00000000      1.00000000      1.00000000      1.00000000      1.00000000      1.00000000      1.00000000      1.00000000      1.00000000      1.00000000      1.00000000      1.00000000      1.00000000      1.00000000      1.00000000
      1.00000000      1.00000000      1.00000000      1.00000000      1.00000000      1.00000000      1.00000000      1.00000000      1.00000000      1.00000000      1.00000000      1.00000000      1.00000000      1.00000000      1.00000000      1.00000000      1.00000000</v>
    <i name="NUPDOWN">     -1.00000000</i>
    <i type="logical" name="LSORBIT"> F  </i>
    <v name="SAXIS">      0.00000000      0.00000000      1.00000000</v>
    <i type="logical" name="LSPIRAL"> F  </i>
    <v name="QSPIRAL">      0.00000000      0.00000000      0.00000000</v>
    <i type="logical" name="LZEROZ"> F  </i>
   </separator>
   <separator name="electronic exchange-correlation" >
    <i type="logical" name="LASPH"> F  </i>
    <i type="logical" name="LMETAGGA"> F  </i>
   </separator>
   <separator name="electronic convergence" >
    <i type="int" name="NELM">    60</i>
    <i type="int" name="NELMDL">    -5</i>
    <i type="int" name="NELMIN">     5</i>
    <i name="ENINI">    500.00000000</i>
    <separator name="electronic convergence detail" >
     <i type="logical" name="LDIAG"> T  </i>
     <i type="logical" name="LSUBROT"> F  </i>
     <i name="WEIMIN">      0.00000000</i>
     <i name="EBREAK">      0.00000000</i>
     <i name="DEPER">      0.30000000</i>
     <i type="int" name="NRMM">     4</i>
     <i name="TIME">      0.40000000</i>
    </separator>
   </separator>
   <separator name="electronic mixer" >
    <i name="AMIX">      0.40000000</i>
    <i name="BMIX">      1.00000000</i>
    <i name="AMIN">      0.10000000</i>
    <i name="AMIX_MAG">      1.60000000</i>
    <i name="BMIX_MAG">      1.00000000</i>
    <separator name="electronic mixer details" >
     <i type="int" name="IMIX">     4</i>
     <i type="logical" name="MIXFIRST"> F  </i>
     <i type="int" name="MAXMIX">   -45</i>
     <i name="WC">    100.00000000</i>
     <i type="int" name="INIMIX">     1</i>
     <i type="int" name="MIXPRE">     1</i>
     <i type="int" name="MREMOVE">     5</i>
    </separator>
   </separator>
   <separator name="electronic dipolcorrection" >
    <i type="logical" name="LDIPOL"> F  </i>
    <i type="logical" name="LMONO"> F  </i>
    <i type="int" name="IDIPOL">     0</i>
    <i name="EPSILON">      1.00000000</i>
    <v name="DIPOL">   -100.00000000   -100.00000000   -100.00000000</v>
    <i name="EFIELD">      0.00000000</i>
   </separator>
  </separator>
  <separator name="grids" >
   <i type="int" name="NGX">   128</i>
   <i type="int" name="NGY">   128</i>
   <i type="int" name="NGZ">   150</i>
   <i type="int" name="NGXF">   256</i>
   <i type="int" name="NGYF">   256</i>
   <i type="int" name="NGZF">   300</i>
   <i type="logical" name="ADDGRID"> T  </i>
  </separator>
  <separator name="ionic" >
   <i type="int" name="NSW">     0</i>
   <i type="int" name="IBRION">    -1</i>
   <i type="int" name="MDALGO">     0</i>
   <i type="int" name="ISIF">     2</i>
   <i name="PSTRESS">      0.00000000</i>
   <i name="EDIFFG">     -0.00000001</i>
   <i type="int" name="NFREE">     0</i>
   <i name="POTIM">      0.50000000</i>
   <i name="SMASS">     -3.00000000</i>
   <i name="SCALEE">      1.00000000</i>
  </separator>
  <separator name="ionic md" >
   <i name="TEBEG">      0.00010000</i>
   <i name="TEEND">      0.00010000</i>
   <i type="int" name="NBLOCK">     1</i>
   <i type="int" name="KBLOCK">     1</i>
   <i type="int" name="NPACO">   256</i>
   <i name="APACO">     16.00000000</i>
  </separator>
  <separator name="symmetry" >
   <i type="int" name="ISYM">     2</i>
   <i name="SYMPREC">      0.00001000</i>
  </separator>
  <separator name="dos" >
   <i type="int" name="LORBIT">     0</i>
   <v name="RWIGS">     -1.00000000     -1.00000000     -1.00000000</v>
   <i type="int" name="NEDOS">   301</i>
   <i name="EMIN">     10.00000000</i>
   <i name="EMAX">    -10.00000000</i>
   <i name="EFERMI">      0.00000000</i>
  </separator>
  <separator name="writing" >
   <i type="int" name="NWRITE">     2</i>
   <i type="logical" name="LWAVE"> F  </i>
   <i type="logical" name="LDOWNSAMPLE"> F  </i>
   <i type="logical" name="LCHARG"> F  </i>
   <i type="logical" name="LPARD"> F  </i>
   <i type="logical" name="LVTOT"> F  </i>
   <i type="logical" name="LVHAR"> F  </i>
   <i type="logical" name="LELF"> F  </i>
   <i type="logical" name="LOPTICS"> F  </i>
   <v name="STM">      0.00000000      0.00000000      0.00000000      0.00000000      0.00000000      0.00000000      0.00000000</v>
  </separator>
  <separator name="performance" >
   <i type="int" name="NPAR">     4</i>
   <i type="int" name="NSIM">     4</i>
   <i type="int" name="NBLK">    -1</i>
   <i type="logical" name="LPLANE"> T  </i>
   <i type="logical" name="LSCALAPACK"> T  </i>
   <i type="logical" name="LSCAAWARE"> F  </i>
   <i type="logical" name="LSCALU"> F  </i>
   <i type="logical" name="LASYNC"> F  </i>
   <i type="logical" name="LORBITALREAL"> F  </i>
  </separator>
  <separator name="miscellaneous" >
   <i type="int" name="IDIOT">     3</i>
   <i type="int" name="ISPECIAL">     0</i>
   <i type="logical" name="LMUSIC"> F  </i>
   <v name="POMASS">     10.81100000     14.00100000     12.01100000</v>
   <v name="DARWINR">      0.00000000      0.00000000      0.00000000</v>
   <v name="DARWINV">      1.00000000      1.00000000      1.00000000</v>
   <i type="logical" name="LCORR"> T  </i>
  </separator>
  <i type="logical" name="GGA_COMPAT"> T  </i>
  <i type="logical" name="LBERRY"> F  </i>
  <i type="int" name="ICORELEVEL">     0</i>
  <i type="logical" name="LDAU"> F  </i>
  <i type="int" name="I_CONSTRAINED_M">     0</i>
  <separator name="electronic exchange-correlation" >
   <i type="string" name="GGA">--</i>
   <i type="int" name="VOSKOWN">     0</i>
   <i type="logical" name="LHFCALC"> F  </i>
   <i type="string" name="PRECFOCK"></i>
   <i type="logical" name="LSYMGRAD"> F  </i>
   <i type="logical" name="LHFONE"> F  </i>
   <i type="logical" name="LRHFCALC"> F  </i>
   <i type="logical" name="LTHOMAS"> F  </i>
   <i type="logical" name="LMODELHF"> F  </i>
   <i name="ENCUT4O">     -1.00000000</i>
   <i type="int" name="EXXOEP">     0</i>
   <i type="int" name="FOURORBIT">     0</i>
   <i name="AEXX">      0.00000000</i>
   <i name="HFALPHA">      0.00000000</i>
   <i name="MCALPHA">      0.00000000</i>
   <i name="ALDAX">      1.00000000</i>
   <i name="AGGAX">      1.00000000</i>
   <i name="ALDAC">      1.00000000</i>
   <i name="AGGAC">      1.00000000</i>
   <i type="int" name="NKREDX">     1</i>
   <i type="int" name="NKREDY">     1</i>
   <i type="int" name="NKREDZ">     1</i>
   <i type="logical" name="SHIFTRED"> F  </i>
   <i type="logical" name="ODDONLY"> F  </i>
   <i type="logical" name="EVENONLY"> F  </i>
   <i type="int" name="LMAXFOCK">     0</i>
   <i type="int" name="NMAXFOCKAE">     0</i>
   <i type="logical" name="LFOCKAEDFT"> F  </i>
   <i name="HFSCREEN">      0.00000000</i>
   <i name="HFSCREENC">      0.00000000</i>
   <i type="int" name="NBANDSGWLOW">     0</i>
  </separator>
  <separator name="vdW DFT" >
   <i type="logical" name="LUSE_VDW"> F  </i>
   <i name="Zab_VDW">     -0.84910000</i>
   <i name="PARAM1">      0.12340000</i>
   <i name="PARAM2">      1.00000000</i>
   <i name="PARAM3">      0.00000000</i>
  </separator>
  <separator name="model GW" >
   <i type="int" name="MODEL_GW">     0</i>
   <i name="MODEL_EPS0">     33.05532754</i>
   <i name="MODEL_ALPHA">      1.00000000</i>
  </separator>
  <separator name="linear response parameters" >
   <i type="logical" name="LEPSILON"> F  </i>
   <i type="logical" name="LRPA"> F  </i>
   <i type="logical" name="LNABLA"> F  </i>
   <i type="logical" name="LVEL"> F  </i>
   <i type="int" name="KINTER">     0</i>
   <i name="CSHIFT">      0.10000000</i>
   <i name="OMEGAMAX">     -1.00000000</i>
   <i name="DEG_THRESHOLD">      0.00200000</i>
   <i name="RTIME">     -0.10000000</i>
   <i name="WPLASMAI">      0.00000000</i>
   <v name="DFIELD">      0.00000000      0.00000000      0.00000000</v>
   <v name="WPLASMA">      0.00000000      0.00000000      0.00000000      0.00000000      0.00000000      0.00000000      0.00000000      0.00000000      0.00000000</v>
  </separator>
  <separator name="orbital magnetization" >
   <i type="logical" name="NUCIND"> F  </i>
   <v name="MAGPOS">      0.00000000      0.00000000      0.00000000</v>
   <i type="logical" name="LNICSALL"> T  </i>
   <i type="logical" name="ORBITALMAG"> F  </i>
   <i type="logical" name="LMAGBLOCH"> F  </i>
   <i type="logical" name="LCHIMAG"> F  </i>
   <i type="logical" name="LGAUGE"> T  </i>
   <i type="int" name="MAGATOM">     0</i>
   <v name="MAGDIPOL">      0.00000000      0.00000000      0.00000000</v>
   <v name="AVECCONST">      0.00000000      0.00000000      0.00000000</v>
  </separator>
  <separator name="response functions" >
   <i type="logical" name="LADDER"> F  </i>
   <i type="logical" name="LRPAFORCE"> F  </i>
   <i type="logical" name="LFXC"> F  </i>
   <i type="logical" name="LHARTREE"> T  </i>
   <i type="int" name="IBSE">     0</i>
   <v type="int" name="KPOINT">    -1     0     0     0</v>
   <i type="logical" name="LTCTE"> F  </i>
   <i type="logical" name="LTETE"> F  </i>
   <i type="logical" name="LTRIPLET"> F  </i>
   <i type="logical" name="LFXCEPS"> F  </i>
   <i type="logical" name="LFXHEG"> F  </i>
   <i type="int" name="NATURALO">     2</i>
   <i type="logical" name="L2ORDER"> F  </i>
   <i type="logical" name="LMP2LT"> F  </i>
   <i type="logical" name="LUSEW"> F  </i>
   <i name="ENCUTGW">     -2.00000000</i>
   <i name="ENCUTGWSOFT">     -2.00000000</i>
   <i name="ENCUTLF">     -1.00000000</i>
   <i type="int" name="LMAXMP2">    -1</i>
   <i name="SCISSOR">      0.00000000</i>
   <i type="int" name="NOMEGA">     0</i>
   <i type="int" name="NOMEGAR">     0</i>
   <i type="int" name="NBANDSGW">    -1</i>
   <i type="int" name="NBANDSO">    -1</i>
   <i type="int" name="NBANDSV">    -1</i>
   <i type="int" name="NELM">     1</i>
   <i type="int" name="NELMHF">     1</i>
   <i type="int" name="DIM">     3</i>
   <i type="int" name="ANTIRES">     0</i>
   <i name="OMEGAMAX">    -30.00000000</i>
   <i name="OMEGAMIN">    -30.00000000</i>
   <i name="OMEGATL">   -200.00000000</i>
   <i type="int" name="OMEGAGRID">   140</i>
   <i name="CSHIFT">     -0.10000000</i>
   <i type="logical" name="SELFENERGY"> F  </i>
   <i type="logical" name="LSPECTRAL"> F  </i>
   <i type="logical" name="LSPECTRALGW"> F  </i>
   <i type="logical" name="LSINGLES"> F  </i>
   <i type="logical" name="LFERMIGW"> F  </i>
   <i type="logical" name="ODDONLYGW"> F  </i>
   <i type="logical" name="EVENONLYGW"> F  </i>
   <i type="int" name="NKREDLFX">     1</i>
   <i type="int" name="NKREDLFY">     1</i>
   <i type="int" name="NKREDLFZ">     1</i>
   <i type="int" name="MAXMEM">  2800</i>
   <i type="int" name="TELESCOPE">     0</i>
   <i type="int" name="TAUPAR">     1</i>
   <i type="int" name="OMEGAPAR">    -1</i>
   <i name="LAMBDA">      1.00000000</i>
  </separator>
  <separator name="External order field" >
   <i name="OFIELD_KAPPA">      0.00000000</i>
   <v name="OFIELD_K">      0.00000000      0.00000000      0.00000000</v>
   <i name="OFIELD_Q6_NEAR">      0.00000000</i>
   <i name="OFIELD_Q6_FAR">      0.00000000</i>
   <i name="OFIELD_A">      0.00000000</i>
  </separator>
 </parameters>
 <atominfo>
  <atoms>      97 </atoms>
  <types>       3 </types>
  <array name="atoms" >
   <dimension dim="1">ion</dimension>
   <field type="string">element</field>
   <field type="int">atomtype</field>
   <set>
    <rc><c>B </c><c>   1</c></rc>
    <rc><c>B </c><c>   1</c></rc>
    <rc><c>B </c><c>   1</c></rc>
    <rc><c>B </c><c>   1</c></rc>
    <rc><c>B </c><c>   1</c></rc>
    <rc><c>B </c><c>   1</c></rc>
    <rc><c>B </c><c>   1</c></rc>
    <rc><c>B </c><c>   1</c></rc>
    <rc><c>B </c><c>   1</c></rc>
    <rc><c>B </c><c>   1</c></rc>
    <rc><c>B </c><c>   1</c></rc>
    <rc><c>B </c><c>   1</c></rc>
    <rc><c>B </c><c>   1</c></rc>
    <rc><c>B </c><c>   1</c></rc>
    <rc><c>B </c><c>   1</c></rc>
    <rc><c>B </c><c>   1</c></rc>
    <rc><c>B </c><c>   1</c></rc>
    <rc><c>B </c><c>   1</c></rc>
    <rc><c>B </c><c>   1</c></rc>
    <rc><c>B </c><c>   1</c></rc>
    <rc><c>B </c><c>   1</c></rc>
    <rc><c>B </c><c>   1</c></rc>
    <rc><c>B </c><c>   1</c></rc>
    <rc><c>B </c><c>   1</c></rc>
    <rc><c>B </c><c>   1</c></rc>
    <rc><c>B </c><c>   1</c></rc>
    <rc><c>B </c><c>   1</c></rc>
    <rc><c>B </c><c>   1</c></rc>
    <rc><c>B </c><c>   1</c></rc>
    <rc><c>B </c><c>   1</c></rc>
    <rc><c>B </c><c>   1</c></rc>
    <rc><c>B </c><c>   1</c></rc>
    <rc><c>B </c><c>   1</c></rc>
    <rc><c>B </c><c>   1</c></rc>
    <rc><c>B </c><c>   1</c></rc>
    <rc><c>B </c><c>   1</c></rc>
    <rc><c>B </c><c>   1</c></rc>
    <rc><c>B </c><c>   1</c></rc>
    <rc><c>B </c><c>   1</c></rc>
    <rc><c>B </c><c>   1</c></rc>
    <rc><c>B </c><c>   1</c></rc>
    <rc><c>B </c><c>   1</c></rc>
    <rc><c>B </c><c>   1</c></rc>
    <rc><c>B </c><c>   1</c></rc>
    <rc><c>B </c><c>   1</c></rc>
    <rc><c>B </c><c>   1</c></rc>
    <rc><c>B </c><c>   1</c></rc>
    <rc><c>B </c><c>   1</c></rc>
    <rc><c>N </c><c>   2</c></rc>
    <rc><c>N </c><c>   2</c></rc>
    <rc><c>N </c><c>   2</c></rc>
    <rc><c>N </c><c>   2</c></rc>
    <rc><c>N </c><c>   2</c></rc>
    <rc><c>N </c><c>   2</c></rc>
    <rc><c>N </c><c>   2</c></rc>
    <rc><c>N </c><c>   2</c></rc>
    <rc><c>N </c><c>   2</c></rc>
    <rc><c>N </c><c>   2</c></rc>
    <rc><c>N </c><c>   2</c></rc>
    <rc><c>N </c><c>   2</c></rc>
    <rc><c>N </c><c>   2</c></rc>
    <rc><c>N </c><c>   2</c></rc>
    <rc><c>N </c><c>   2</c></rc>
    <rc><c>N </c><c>   2</c></rc>
    <rc><c>N </c><c>   2</c></rc>
    <rc><c>N </c><c>   2</c></rc>
    <rc><c>N </c><c>   2</c></rc>
    <rc><c>N </c><c>   2</c></rc>
    <rc><c>N </c><c>   2</c></rc>
    <rc><c>N </c><c>   2</c></rc>
    <rc><c>N </c><c>   2</c></rc>
    <rc><c>N </c><c>   2</c></rc>
    <rc><c>N </c><c>   2</c></rc>
    <rc><c>N </c><c>   2</c></rc>
    <rc><c>N </c><c>   2</c></rc>
    <rc><c>N </c><c>   2</c></rc>
    <rc><c>N </c><c>   2</c></rc>
    <rc><c>N </c><c>   2</c></rc>
    <rc><c>N </c><c>   2</c></rc>
    <rc><c>N </c><c>   2</c></rc>
    <rc><c>N </c><c>   2</c></rc>
    <rc><c>N </c><c>   2</c></rc>
    <rc><c>N </c><c>   2</c></rc>
    <rc><c>N </c><c>   2</c></rc>
    <rc><c>N </c><c>   2</c></rc>
    <rc><c>N </c><c>   2</c></rc>
    <rc><c>N </c><c>   2</c></rc>
    <rc><c>N </c><c>   2</c></rc>
    <rc><c>N </c><c>   2</c></rc>
    <rc><c>N </c><c>   2</c></rc>
    <rc><c>N </c><c>   2</c></rc>
    <rc><c>N </c><c>   2</c></rc>
    <rc><c>N </c><c>   2</c></rc>
    <rc><c>N </c><c>   2</c></rc>
    <rc><c>N </c><c>   2</c></rc>
    <rc><c>N </c><c>   2</c></rc>
    <rc><c>C </c><c>   3</c></rc>
   </set>
  </array>
  <array name="atomtypes" >
   <dimension dim="1">type</dimension>
   <field type="int">atomspertype</field>
   <field type="string">element</field>
   <field>mass</field>
   <field>valence</field>
   <field type="string">pseudopotential</field>
   <set>
    <rc><c>  48</c><c>B </c><c>     10.81100000</c><c>      3.00000000</c><c>  PAW_PBE B 06Sep2000                   </c></rc>
    <rc><c>  48</c><c>N </c><c>     14.00100000</c><c>      5.00000000</c><c>  PAW_PBE N 08Apr2002                   </c></rc>
    <rc><c>   1</c><c>C </c><c>     12.01100000</c><c>      4.00000000</c><c>  PAW_PBE C 08Apr2002                   </c></rc>
   </set>
  </array>
 </atominfo>
 <structure name="initialpos" >
  <crystal>
   <varray name="basis" >
    <v>      17.59966831       0.00000000       0.00000000 </v>
    <v>      -8.79983416      15.24175986       0.00000000 </v>
    <v>       0.00000000       0.00000000      19.92151445 </v>
   </varray>
   <i name="volume">   5343.94461817 </i>
   <varray name="rec_basis" >
    <v>       0.05681925       0.03280461       0.00000000 </v>
    <v>       0.00000000       0.06560922       0.00000000 </v>
    <v>       0.00000000       0.00000000       0.05019699 </v>
   </varray>
  </crystal>
  <varray name="positions" >
   <v>       0.99943010       0.00005992       0.50000000 </v>
   <v>       0.14164706       0.99871895       0.50000000 </v>
   <v>       0.28492260       0.99841663       0.50000000 </v>
   <v>       0.42850047       0.99871895       0.50000000 </v>
   <v>       0.57205839       0.00005992       0.50000000 </v>
   <v>       0.71530655       0.00214292       0.50000000 </v>
   <v>       0.85826494       0.00214292       0.50000000 </v>
   <v>       0.00080792       0.14408264       0.50000000 </v>
   <v>       0.14259355       0.14244783       0.50000000 </v>
   <v>       0.28470221       0.14112972       0.50000000 </v>
   <v>       0.42785608       0.14112972       0.50000000 </v>
   <v>       0.57128286       0.14244783       0.50000000 </v>
   <v>       0.71470329       0.14408264       0.50000000 </v>
   <v>       0.85805263       0.14467669       0.50000000 </v>
   <v>       0.00095476       0.28713011       0.50000000 </v>
   <v>       0.14372552       0.28645370       0.50000000 </v>
   <v>       0.28540977       0.28469374       0.50000000 </v>
   <v>       0.42724431       0.28306005       0.50000000 </v>
   <v>       0.57071254       0.28469374       0.50000000 </v>
   <v>       0.71415674       0.28645370       0.50000000 </v>
   <v>       0.85760392       0.28713011       0.50000000 </v>
   <v>       0.00054479       0.42966101       0.50000000 </v>
   <v>       0.14422690       0.42957551       0.50000000 </v>
   <v>       0.28730213       0.42918005       0.50000000 </v>
   <v>       0.42797654       0.42569726       0.50000000 </v>
   <v>       0.56914930       0.42569726       0.50000000 </v>
   <v>       0.71330650       0.42918005       0.50000000 </v>
   <v>       0.85677719       0.42957551       0.50000000 </v>
   <v>       0.99928255       0.57181462       0.50000000 </v>
   <v>       0.14396064       0.57181462       0.50000000 </v>
   <v>       0.28862787       0.57181625       0.50000000 </v>
   <v>       0.43313209       0.57215564       0.50000000 </v>
   <v>       0.71045212       0.57215564       0.50000000 </v>
   <v>       0.85461695       0.57181625       0.50000000 </v>
   <v>       0.99707234       0.71370518       0.50000000 </v>
   <v>       0.14255519       0.71368182       0.50000000 </v>
   <v>       0.28806142       0.71370518       0.50000000 </v>
   <v>       0.43464191       0.71382540       0.50000000 </v>
   <v>       0.58510826       0.71626937       0.50000000 </v>
   <v>       0.70258968       0.71626937       0.50000000 </v>
   <v>       0.85061206       0.71382540       0.50000000 </v>
   <v>       0.99777175       0.85613493       0.50000000 </v>
   <v>       0.14160898       0.85591288       0.50000000 </v>
   <v>       0.28573247       0.85591288       0.50000000 </v>
   <v>       0.42979175       0.85613493       0.50000000 </v>
   <v>       0.57342541       0.85758690       0.50000000 </v>
   <v>       0.71640633       0.86138410       0.50000000 </v>
   <v>       0.85559006       0.85758690       0.50000000 </v>
   <v>       0.04754270       0.09547788       0.50000000 </v>
   <v>       0.18957833       0.09405657       0.50000000 </v>
   <v>       0.33254182       0.09365506       0.50000000 </v>
   <v>       0.47590681       0.09405657       0.50000000 </v>
   <v>       0.61936376       0.09547788       0.50000000 </v>
   <v>       0.76280004       0.09719274       0.50000000 </v>
   <v>       0.90582126       0.09719274       0.50000000 </v>
   <v>       0.04854983       0.23934281       0.50000000 </v>
   <v>       0.19048138       0.23782962       0.50000000 </v>
   <v>       0.33234878       0.23634667       0.50000000 </v>
   <v>       0.47542646       0.23634667       0.50000000 </v>
   <v>       0.61877681       0.23782962       0.50000000 </v>
   <v>       0.76222155       0.23934281       0.50000000 </v>
   <v>       0.90562797       0.23982737       0.50000000 </v>
   <v>       0.04871288       0.38232824       0.50000000 </v>
   <v>       0.19188940       0.38184213       0.50000000 </v>
   <v>       0.33352206       0.38013969       0.50000000 </v>
   <v>       0.47472270       0.37801683       0.50000000 </v>
   <v>       0.61804620       0.38013969       0.50000000 </v>
   <v>       0.76138130       0.38184213       0.50000000 </v>
   <v>       0.90504393       0.38232824       0.50000000 </v>
   <v>       0.04810654       0.52478452       0.50000000 </v>
   <v>       0.19263929       0.52476864       0.50000000 </v>
   <v>       0.33696521       0.52455433       0.50000000 </v>
   <v>       0.47833704       0.52146721       0.50000000 </v>
   <v>       0.61455874       0.52146721       0.50000000 </v>
   <v>       0.75901769       0.52455433       0.50000000 </v>
   <v>       0.90355792       0.52476864       0.50000000 </v>
   <v>       0.04642473       0.66685228       0.50000000 </v>
   <v>       0.19185612       0.66685228       0.50000000 </v>
   <v>       0.33777931       0.66688794       0.50000000 </v>
   <v>       0.48615700       0.66710760       0.50000000 </v>
   <v>       0.75237918       0.66710760       0.50000000 </v>
   <v>       0.90053720       0.66688794       0.50000000 </v>
   <v>       0.04582562       0.80879365       0.50000000 </v>
   <v>       0.19009580       0.80876303       0.50000000 </v>
   <v>       0.33439660       0.80879365       0.50000000 </v>
   <v>       0.47844872       0.80897069       0.50000000 </v>
   <v>       0.62171868       0.81129474       0.49962381 </v>
   <v>       0.76062845       0.81129474       0.50000000 </v>
   <v>       0.90195054       0.80897069       0.50000000 </v>
   <v>       0.04629157       0.95154386       0.50000000 </v>
   <v>       0.18948291       0.95113037       0.50000000 </v>
   <v>       0.33307603       0.95113037       0.50000000 </v>
   <v>       0.47668087       0.95154386       0.50000000 </v>
   <v>       0.62015751       0.95313740       0.50000000 </v>
   <v>       0.76355772       0.95568687       0.50000000 </v>
   <v>       0.90440847       0.95313740       0.50000000 </v>
   <v>       0.56830873       0.56518888       0.50000000 </v>
  </varray>
 </structure>
 <calculation>
  <scstep>
   <time name="dav">    2.36    2.38</time>
   <time name="total">    2.73    3.02</time>
   <energy>
    <i name="alphaZ">    156.50993408 </i>
    <i name="ewald">  58206.80309429 </i>
    <i name="hartreedc"> -70374.25989609 </i>
    <i name="XCdc">   1302.10759566 </i>
    <i name="pawpsdc">  12033.28670802 </i>
    <i name="pawaedc"> -12049.96799276 </i>
    <i name="eentropy">     -0.00000000 </i>
    <i name="bandstr">   -904.54757289 </i>
    <i name="atom">  16260.93880140 </i>
    <i name="e_fr_energy">   4630.87067170 </i>
    <i name="e_wo_entrp">   4630.87067170 </i>
    <i name="e_0_energy">   4630.87067170 </i>
   </energy>
  </scstep>
  <scstep>
   <time name="dav">    2.99    3.03</time>
   <time name="total">    2.99    3.03</time>
   <energy>
    <i name="e_fr_energy">    216.68670940 </i>
    <i name="e_wo_entrp">    216.68670940 </i>
    <i name="e_0_energy">    216.68670940 </i>
   </energy>
  </scstep>
  <scstep>
   <time name="dav">    2.47    2.50</time>
   <time name="total">    2.47    2.50</time>
   <energy>
    <i name="e_fr_energy">   -867.47583920 </i>
    <i name="e_wo_entrp">   -867.47583920 </i>
    <i name="e_0_energy">   -867.47583920 </i>
   </energy>
  </scstep>
  <scstep>
   <time name="dav">    2.47    2.50</time>
   <time name="total">    2.47    2.50</time>
   <energy>
    <i name="e_fr_energy">   -934.19692324 </i>
    <i name="e_wo_entrp">   -934.19692324 </i>
    <i name="e_0_energy">   -934.19692324 </i>
   </energy>
  </scstep>
  <scstep>
   <time name="dav">    2.51    2.53</time>
   <time name="total">    2.75    2.78</time>
   <energy>
    <i name="e_fr_energy">   -935.77750090 </i>
    <i name="e_wo_entrp">   -935.77750090 </i>
    <i name="e_0_energy">   -935.77750090 </i>
   </energy>
  </scstep>
  <scstep>
   <time name="dav">    2.33    2.35</time>
   <time name="total">    2.93    2.97</time>
   <energy>
    <i name="e_fr_energy">   -858.73980617 </i>
    <i name="e_wo_entrp">   -858.73980617 </i>
    <i name="e_0_energy">   -858.73980617 </i>
   </energy>
  </scstep>
  <scstep>
   <time name="dav">    2.35    2.37</time>
   <time name="total">    2.95    2.99</time>
   <energy>
    <i name="e_fr_energy">   -850.20013984 </i>
    <i name="e_wo_entrp">   -850.20013984 </i>
    <i name="e_0_energy">   -850.20013984 </i>
   </energy>
  </scstep>
  <scstep>
   <time name="dav">    2.28    2.30</time>
   <time name="total">    2.90    2.93</time>
   <energy>
    <i name="e_fr_energy">   -845.93230111 </i>
    <i name="e_wo_entrp">   -845.93230097 </i>
    <i name="e_0_energy">   -845.93230104 </i>
   </energy>
  </scstep>
  <scstep>
   <time name="dav">    2.30    2.32</time>
   <time name="total">    2.91    2.94</time>
   <energy>
    <i name="e_fr_energy">   -845.80751130 </i>
    <i name="e_wo_entrp">   -845.80751130 </i>
    <i name="e_0_energy">   -845.80751130 </i>
   </energy>
  </scstep>
  <scstep>
   <time name="dav">    2.37    2.40</time>
   <time name="total">    2.99    3.02</time>
   <energy>
    <i name="e_fr_energy">   -845.64747495 </i>
    <i name="e_wo_entrp">   -845.64747495 </i>
    <i name="e_0_energy">   -845.64747495 </i>
   </energy>
  </scstep>
  <scstep>
   <time name="dav">    2.23    2.25</time>
   <time name="total">    2.84    2.87</time>
   <energy>
    <i name="e_fr_energy">   -845.60071290 </i>
    <i name="e_wo_entrp">   -845.60071290 </i>
    <i name="e_0_energy">   -845.60071290 </i>
   </energy>
  </scstep>
  <scstep>
   <time name="dav">    2.27    2.30</time>
   <time name="total">    2.88    2.92</time>
   <energy>
    <i name="e_fr_energy">   -845.58397969 </i>
    <i name="e_wo_entrp">   -845.58397969 </i>
    <i name="e_0_energy">   -845.58397969 </i>
   </energy>
  </scstep>
  <scstep>
   <time name="dav">    2.22    2.24</time>
   <time name="total">    2.84    2.87</time>
   <energy>
    <i name="e_fr_energy">   -845.58283119 </i>
    <i name="e_wo_entrp">   -845.58283119 </i>
    <i name="e_0_energy">   -845.58283119 </i>
   </energy>
  </scstep>
  <scstep>
   <time name="dav">    2.23    2.25</time>
   <time name="total">    2.84    2.88</time>
   <energy>
    <i name="e_fr_energy">   -845.58812008 </i>
    <i name="e_wo_entrp">   -845.58812008 </i>
    <i name="e_0_energy">   -845.58812008 </i>
   </energy>
  </scstep>
  <scstep>
   <time name="dav">    2.24    2.26</time>
   <time name="total">    2.86    2.89</time>
   <energy>
    <i name="e_fr_energy">   -845.61456970 </i>
    <i name="e_wo_entrp">   -845.61456970 </i>
    <i name="e_0_energy">   -845.61456970 </i>
   </energy>
  </scstep>
  <scstep>
   <time name="dav">    2.16    2.18</time>
   <time name="total">    2.77    2.80</time>
   <energy>
    <i name="e_fr_energy">   -845.63814187 </i>
    <i name="e_wo_entrp">   -845.63814187 </i>
    <i name="e_0_energy">   -845.63814187 </i>
   </energy>
  </scstep>
  <scstep>
   <time name="dav">    2.25    2.27</time>
   <time name="total">    2.86    2.90</time>
   <energy>
    <i name="e_fr_energy">   -845.65087437 </i>
    <i name="e_wo_entrp">   -845.65087437 </i>
    <i name="e_0_energy">   -845.65087437 </i>
   </energy>
  </scstep>
  <scstep>
   <time name="dav">    2.25    2.27</time>
   <time name="total">    2.87    2.91</time>
   <energy>
    <i name="e_fr_energy">   -845.65642175 </i>
    <i name="e_wo_entrp">   -845.65642175 </i>
    <i name="e_0_energy">   -845.65642175 </i>
   </energy>
  </scstep>
  <scstep>
   <time name="dav">    2.23    2.25</time>
   <time name="total">    2.85    2.88</time>
   <energy>
    <i name="e_fr_energy">   -845.65863183 </i>
    <i name="e_wo_entrp">   -845.65863183 </i>
    <i name="e_0_energy">   -845.65863183 </i>
   </energy>
  </scstep>
  <scstep>
   <time name="dav">    2.25    2.27</time>
   <time name="total">    2.87    2.91</time>
   <energy>
    <i name="e_fr_energy">   -845.65931293 </i>
    <i name="e_wo_entrp">   -845.65931293 </i>
    <i name="e_0_energy">   -845.65931293 </i>
   </energy>
  </scstep>
  <scstep>
   <time name="dav">    2.23    2.25</time>
   <time name="total">    2.84    2.88</time>
   <energy>
    <i name="e_fr_energy">   -845.65963314 </i>
    <i name="e_wo_entrp">   -845.65963314 </i>
    <i name="e_0_energy">   -845.65963314 </i>
   </energy>
  </scstep>
  <scstep>
   <time name="dav">    2.21    2.23</time>
   <time name="total">    2.82    2.85</time>
   <energy>
    <i name="e_fr_energy">   -845.65982604 </i>
    <i name="e_wo_entrp">   -845.65982604 </i>
    <i name="e_0_energy">   -845.65982604 </i>
   </energy>
  </scstep>
  <scstep>
   <time name="dav">    2.20    2.22</time>
   <time name="total">    2.83    2.85</time>
   <energy>
    <i name="e_fr_energy">   -845.65993532 </i>
    <i name="e_wo_entrp">   -845.65993532 </i>
    <i name="e_0_energy">   -845.65993532 </i>
   </energy>
  </scstep>
  <scstep>
   <time name="dav">    2.23    2.24</time>
   <time name="total">    2.84    2.88</time>
   <energy>
    <i name="e_fr_energy">   -845.66000566 </i>
    <i name="e_wo_entrp">   -845.66000566 </i>
    <i name="e_0_energy">   -845.66000566 </i>
   </energy>
  </scstep>
  <scstep>
   <time name="dav">    2.25    2.27</time>
   <time name="total">    2.89    2.91</time>
   <energy>
    <i name="e_fr_energy">   -845.66004200 </i>
    <i name="e_wo_entrp">   -845.66004200 </i>
    <i name="e_0_energy">   -845.66004200 </i>
   </energy>
  </scstep>
  <scstep>
   <time name="dav">    2.20    2.22</time>
   <time name="total">    2.83    2.85</time>
   <energy>
    <i name="e_fr_energy">   -845.66006131 </i>
    <i name="e_wo_entrp">   -845.66006131 </i>
    <i name="e_0_energy">   -845.66006131 </i>
   </energy>
  </scstep>
  <scstep>
   <time name="dav">    2.33    2.35</time>
   <time name="total">    2.95    2.98</time>
   <energy>
    <i name="e_fr_energy">   -845.66006711 </i>
    <i name="e_wo_entrp">   -845.66006711 </i>
    <i name="e_0_energy">   -845.66006711 </i>
   </energy>
  </scstep>
  <scstep>
   <time name="dav">    2.12    2.15</time>
   <time name="total">    2.75    2.79</time>
   <energy>
    <i name="e_fr_energy">   -845.66007005 </i>
    <i name="e_wo_entrp">   -845.66007005 </i>
    <i name="e_0_energy">   -845.66007005 </i>
   </energy>
  </scstep>
  <scstep>
   <time name="dav">    2.00    2.02</time>
   <time name="total">    2.62    2.66</time>
   <energy>
    <i name="e_fr_energy">   -845.66007076 </i>
    <i name="e_wo_entrp">   -845.66007076 </i>
    <i name="e_0_energy">   -845.66007076 </i>
   </energy>
  </scstep>
  <scstep>
   <time name="dav">    1.69    1.70</time>
   <time name="total">    2.31    2.34</time>
   <energy>
    <i name="e_fr_energy">   -845.66007096 </i>
    <i name="e_wo_entrp">   -845.66007096 </i>
    <i name="e_0_energy">   -845.66007096 </i>
   </energy>
  </scstep>
  <scstep>
   <time name="dav">    1.66    1.68</time>
   <time name="total">    2.29    2.32</time>
   <energy>
    <i name="e_fr_energy">   -845.66007105 </i>
    <i name="e_wo_entrp">   -845.66007105 </i>
    <i name="e_0_energy">   -845.66007105 </i>
   </energy>
  </scstep>
  <scstep>
   <time name="dav">    1.72    1.73</time>
   <time name="total">    2.34    2.37</time>
   <energy>
    <i name="e_fr_energy">   -845.66007106 </i>
    <i name="e_wo_entrp">   -845.66007106 </i>
    <i name="e_0_energy">   -845.66007106 </i>
   </energy>
  </scstep>
  <scstep>
   <time name="dav">    1.80    1.82</time>
   <time name="total">    2.17    2.21</time>
   <energy>
    <i name="alphaZ">    156.50993408 </i>
    <i name="ewald">  58206.80309429 </i>
    <i name="hartreedc"> -72314.34952965 </i>
    <i name="XCdc">   1369.72234339 </i>
    <i name="pawpsdc">  44018.12344451 </i>
    <i name="pawaedc"> -44053.46494520 </i>
    <i name="eentropy">     -0.00000000 </i>
    <i name="bandstr">  -4489.94321389 </i>
    <i name="atom">  16260.93880140 </i>
    <i name="e_fr_energy">   -845.66007107 </i>
    <i name="e_wo_entrp">   -845.66007107 </i>
    <i name="e_0_energy">   -845.66007107 </i>
   </energy>
  </scstep>
  <structure>
   <crystal>
    <varray name="basis" >
     <v>      17.59966831       0.00000000       0.00000000 </v>
     <v>      -8.79983416      15.24175986       0.00000000 </v>
     <v>       0.00000000       0.00000000      19.92151445 </v>
    </varray>
    <i name="volume">   5343.94461817 </i>
    <varray name="rec_basis" >
     <v>       0.05681925       0.03280461       0.00000000 </v>
     <v>       0.00000000       0.06560922       0.00000000 </v>
     <v>       0.00000000       0.00000000       0.05019699 </v>
    </varray>
   </crystal>
   <varray name="positions" >
    <v>       0.99943010       0.00005992       0.50000000 </v>
    <v>       0.14164706       0.99871895       0.50000000 </v>
    <v>       0.28492260       0.99841663       0.50000000 </v>
    <v>       0.42850047       0.99871895       0.50000000 </v>
    <v>       0.57205839       0.00005992       0.50000000 </v>
    <v>       0.71530655       0.00214292       0.50000000 </v>
    <v>       0.85826494       0.00214292       0.50000000 </v>
    <v>       0.00080792       0.14408264       0.50000000 </v>
    <v>       0.14259355       0.14244783       0.50000000 </v>
    <v>       0.28470221       0.14112972       0.50000000 </v>
    <v>       0.42785608       0.14112972       0.50000000 </v>
    <v>       0.57128286       0.14244783       0.50000000 </v>
    <v>       0.71470329       0.14408264       0.50000000 </v>
    <v>       0.85805263       0.14467669       0.50000000 </v>
    <v>       0.00095476       0.28713011       0.50000000 </v>
    <v>       0.14372552       0.28645370       0.50000000 </v>
    <v>       0.28540977       0.28469374       0.50000000 </v>
    <v>       0.42724431       0.28306005       0.50000000 </v>
    <v>       0.57071254       0.28469374       0.50000000 </v>
    <v>       0.71415674       0.28645370       0.50000000 </v>
    <v>       0.85760392       0.28713011       0.50000000 </v>
    <v>       0.00054479       0.42966101       0.50000000 </v>
    <v>       0.14422690       0.42957551       0.50000000 </v>
    <v>       0.28730213       0.42918005       0.50000000 </v>
    <v>       0.42797654       0.42569726       0.50000000 </v>
    <v>       0.56914930       0.42569726       0.50000000 </v>
    <v>       0.71330650       0.42918005       0.50000000 </v>
    <v>       0.85677719       0.42957551       0.50000000 </v>
    <v>       0.99928255       0.57181462       0.50000000 </v>
    <v>       0.14396064       0.57181462       0.50000000 </v>
    <v>       0.28862787       0.57181625       0.50000000 </v>
    <v>       0.43313209       0.57215564       0.50000000 </v>
    <v>       0.71045212       0.57215564       0.50000000 </v>
    <v>       0.85461695       0.57181625       0.50000000 </v>
    <v>       0.99707234       0.71370518       0.50000000 </v>
    <v>       0.14255519       0.71368182       0.50000000 </v>
    <v>       0.28806142       0.71370518       0.50000000 </v>
    <v>       0.43464191       0.71382540       0.50000000 </v>
    <v>       0.58510826       0.71626937       0.50000000 </v>
    <v>       0.70258968       0.71626937       0.50000000 </v>
    <v>       0.85061206       0.71382540       0.50000000 </v>
    <v>       0.99777175       0.85613493       0.50000000 </v>
    <v>       0.14160898       0.85591288       0.50000000 </v>
    <v>       0.28573247       0.85591288       0.50000000 </v>
    <v>       0.42979175       0.85613493       0.50000000 </v>
    <v>       0.57342541       0.85758690       0.50000000 </v>
    <v>       0.71640633       0.86138410       0.50000000 </v>
    <v>       0.85559006       0.85758690       0.50000000 </v>
    <v>       0.04754270       0.09547788       0.50000000 </v>
    <v>       0.18957833       0.09405657       0.50000000 </v>
    <v>       0.33254182       0.09365506       0.50000000 </v>
    <v>       0.47590681       0.09405657       0.50000000 </v>
    <v>       0.61936376       0.09547788       0.50000000 </v>
    <v>       0.76280004       0.09719274       0.50000000 </v>
    <v>       0.90582126       0.09719274       0.50000000 </v>
    <v>       0.04854983       0.23934281       0.50000000 </v>
    <v>       0.19048138       0.23782962       0.50000000 </v>
    <v>       0.33234878       0.23634667       0.50000000 </v>
    <v>       0.47542646       0.23634667       0.50000000 </v>
    <v>       0.61877681       0.23782962       0.50000000 </v>
    <v>       0.76222155       0.23934281       0.50000000 </v>
    <v>       0.90562797       0.23982737       0.50000000 </v>
    <v>       0.04871288       0.38232824       0.50000000 </v>
    <v>       0.19188940       0.38184213       0.50000000 </v>
    <v>       0.33352206       0.38013969       0.50000000 </v>
    <v>       0.47472270       0.37801683       0.50000000 </v>
    <v>       0.61804620       0.38013969       0.50000000 </v>
    <v>       0.76138130       0.38184213       0.50000000 </v>
    <v>       0.90504393       0.38232824       0.50000000 </v>
    <v>       0.04810654       0.52478452       0.50000000 </v>
    <v>       0.19263929       0.52476864       0.50000000 </v>
    <v>       0.33696521       0.52455433       0.50000000 </v>
    <v>       0.47833704       0.52146721       0.50000000 </v>
    <v>       0.61455874       0.52146721       0.50000000 </v>
    <v>       0.75901769       0.52455433       0.50000000 </v>
    <v>       0.90355792       0.52476864       0.50000000 </v>
    <v>       0.04642473       0.66685228       0.50000000 </v>
    <v>       0.19185612       0.66685228       0.50000000 </v>
    <v>       0.33777931       0.66688794       0.50000000 </v>
    <v>       0.48615700       0.66710760       0.50000000 </v>
    <v>       0.75237918       0.66710760       0.50000000 </v>
    <v>       0.90053720       0.66688794       0.50000000 </v>
    <v>       0.04582562       0.80879365       0.50000000 </v>
    <v>       0.19009580       0.80876303       0.50000000 </v>
    <v>       0.33439660       0.80879365       0.50000000 </v>
    <v>       0.47844872       0.80897069       0.50000000 </v>
    <v>       0.62171868       0.81129474       0.49962381 </v>
    <v>       0.76062845       0.81129474       0.50000000 </v>
    <v>       0.90195054       0.80897069       0.50000000 </v>
    <v>       0.04629157       0.95154386       0.50000000 </v>
    <v>       0.18948291       0.95113037       0.50000000 </v>
    <v>       0.33307603       0.95113037       0.50000000 </v>
    <v>       0.47668087       0.95154386       0.50000000 </v>
    <v>       0.62015751       0.95313740       0.50000000 </v>
    <v>       0.76355772       0.95568687       0.50000000 </v>
    <v>       0.90440847       0.95313740       0.50000000 </v>
    <v>       0.56830873       0.56518888       0.50000000 </v>
   </varray>
  </structure>
  <varray name="forces" >
   <v>      -0.03700799      -0.02472046       0.00005563 </v>
   <v>      -0.01994299      -0.00913982      -0.00001784 </v>
   <v>       0.00192402      -0.01335555       0.00000623 </v>
   <v>       0.02476883      -0.01144744      -0.00021931 </v>
   <v>       0.04381570      -0.03017245       0.00249305 </v>
   <v>      -0.04707053      -0.05070734      -0.00153636 </v>
   <v>       0.03522505      -0.04643949       0.00245900 </v>
   <v>      -0.00590736      -0.02586733      -0.00016889 </v>
   <v>      -0.02611537      -0.02483481      -0.00002761 </v>
   <v>      -0.00659638      -0.03367652       0.00000859 </v>
   <v>       0.00892106      -0.03446248       0.00002886 </v>
   <v>       0.02783946      -0.02690637      -0.00015437 </v>
   <v>       0.00416053      -0.02826893      -0.00005470 </v>
   <v>      -0.00220011      -0.04088487      -0.00005693 </v>
   <v>      -0.00892385      -0.02868937      -0.00000528 </v>
   <v>       0.00533221      -0.04349671       0.00002663 </v>
   <v>      -0.03023313      -0.00241954       0.00002804 </v>
   <v>       0.00040811      -0.09453901      -0.00026625 </v>
   <v>       0.03094394      -0.00381062      -0.00013868 </v>
   <v>      -0.00535684      -0.04535759      -0.00000343 </v>
   <v>       0.00788133      -0.02952839      -0.00001046 </v>
   <v>       0.00018735       0.00759351      -0.00001050 </v>
   <v>      -0.02532341       0.00021789       0.00000507 </v>
   <v>       0.05676518      -0.13680832      -0.00046066 </v>
   <v>      -0.11197155      -0.20038309       0.00177940 </v>
   <v>       0.11187471      -0.20129306       0.00262330 </v>
   <v>      -0.05707096      -0.13990433      -0.00014407 </v>
   <v>       0.02568381      -0.00156745       0.00000184 </v>
   <v>       0.01791940       0.02887890      -0.00001080 </v>
   <v>      -0.01601011       0.02986054      -0.00001713 </v>
   <v>      -0.08545087       0.13108663       0.00006560 </v>
   <v>       0.04684036       0.40003610       0.00308398 </v>
   <v>      -0.05002355       0.39300197      -0.00032318 </v>
   <v>       0.08673442       0.12705952       0.00005615 </v>
   <v>      -0.00658466       0.02228837      -0.00001079 </v>
   <v>       0.00177680       0.02797410      -0.00000280 </v>
   <v>       0.01087407       0.02369480      -0.00000239 </v>
   <v>       0.08706389       0.05253338      -0.00231457 </v>
   <v>       1.31988896       1.26674518      -0.00735136 </v>
   <v>      -1.37442479       1.24801129       0.02526646 </v>
   <v>      -0.08405091       0.04208535      -0.00032366 </v>
   <v>      -0.04375267      -0.00655383       0.00002650 </v>
   <v>      -0.01071636      -0.00427896      -0.00000746 </v>
   <v>       0.01542358      -0.00524519      -0.00015508 </v>
   <v>       0.05311115      -0.01408965       0.00242736 </v>
   <v>       0.02719516       0.07693191      -0.04276356 </v>
   <v>      -0.12991762      -0.30244181      -0.03745136 </v>
   <v>      -0.14292455       0.04403288      -0.00051965 </v>
   <v>       0.02585812       0.03056255       0.00003313 </v>
   <v>       0.00964110       0.02285600       0.00000652 </v>
   <v>      -0.00106655       0.02787905       0.00000029 </v>
   <v>      -0.01175823       0.02493828       0.00006462 </v>
   <v>      -0.02653670       0.03515261      -0.00044757 </v>
   <v>      -0.00964636       0.02770926      -0.00060580 </v>
   <v>       0.01326757       0.02491883      -0.00050552 </v>
   <v>       0.01638663       0.03447633       0.00002768 </v>
   <v>      -0.00875636       0.00280328      -0.00004633 </v>
   <v>       0.01550605       0.03596105       0.00005262 </v>
   <v>      -0.01612190       0.03674272       0.00008085 </v>
   <v>       0.00828149       0.00483364       0.00006310 </v>
   <v>      -0.01590924       0.03649855       0.00006709 </v>
   <v>       0.00055847       0.03083774       0.00009019 </v>
   <v>       0.01090649       0.02560874      -0.00001454 </v>
   <v>       0.04805058       0.05847199       0.00012653 </v>
   <v>      -0.02097221      -0.19998965      -0.00022634 </v>
   <v>       0.00034697       0.11108564      -0.00065642 </v>
   <v>       0.02152429      -0.19844538      -0.00063011 </v>
   <v>      -0.04842375       0.06052745       0.00006177 </v>
   <v>      -0.01143964       0.02646530      -0.00000503 </v>
   <v>      -0.00107214       0.00862888       0.00000439 </v>
   <v>       0.02484657      -0.00853754       0.00005061 </v>
   <v>       0.19070081       0.10973474      -0.00054249 </v>
   <v>       1.02553367      -1.56239644       0.00612446 </v>
   <v>      -1.02201540      -1.56204060       0.00766014 </v>
   <v>      -0.19139480       0.11424619      -0.00000805 </v>
   <v>      -0.02694727      -0.00654195      -0.00000653 </v>
   <v>       0.00800743      -0.03314428       0.00001126 </v>
   <v>      -0.01181819      -0.03405886       0.00004647 </v>
   <v>      -0.06155364      -0.07011039      -0.00039672 </v>
   <v>      -0.26954531      -0.01380718       0.00891919 </v>
   <v>       0.26639081       0.01147051       0.00063298 </v>
   <v>       0.05652389      -0.06561174      -0.00002279 </v>
   <v>       0.03397327      -0.01304830       0.00000066 </v>
   <v>      -0.00226673      -0.01121238       0.00002727 </v>
   <v>      -0.04101608      -0.01303168      -0.00035390 </v>
   <v>      -0.11716976      -0.01307177       0.00895001 </v>
   <v>      -0.51123696       0.24329983       0.04321197 </v>
   <v>       0.85211912       0.24266588      -0.00160390 </v>
   <v>       0.08013399      -0.01359198       0.00000873 </v>
   <v>       0.02966776       0.01610903      -0.00001511 </v>
   <v>       0.00823677      -0.00364521       0.00000488 </v>
   <v>      -0.01216019      -0.00286483       0.00006925 </v>
   <v>      -0.03495771       0.02039167      -0.00056844 </v>
   <v>      -0.10966758       0.13693120       0.01002703 </v>
   <v>       0.00397687       0.00274757       0.00969319 </v>
   <v>       0.10823476       0.11497532       0.00041148 </v>
   <v>      -0.00020334      -0.11512120      -0.03578538 </v>
  </varray>
  <varray name="stress" >
   <v>     -10.61399361      -0.02614365       0.00114609 </v>
   <v>      -0.02614364       3.03154841      -0.00053852 </v>
   <v>       0.00114609      -0.00053852      -0.42565846 </v>
  </varray>
  <energy>
   <i name="e_fr_energy">   -845.66007107 </i>
   <i name="e_wo_entrp">   -845.66007107 </i>
   <i name="e_0_energy">     -0.00000000 </i>
  </energy>
  <time name="totalsc">   98.42   99.87</time>
  <eigenvalues>
   <array>
    <dimension dim="1">band</dimension>
    <dimension dim="2">kpoint</dimension>
    <dimension dim="3">spin</dimension>
    <field>eigene</field>
    <field>occ</field>
    <set>
     <set comment="spin 1">
      <set comment="kpoint 1">
       <r>  -22.5421    1.0000 </r>
       <r>  -22.0198    1.0000 </r>
       <r>  -21.7733    1.0000 </r>
       <r>  -21.7440    1.0000 </r>
       <r>  -21.6958    1.0000 </r>
       <r>  -21.6538    1.0000 </r>
       <r>  -21.6179    1.0000 </r>
       <r>  -21.2366    1.0000 </r>
       <r>  -21.0697    1.0000 </r>
       <r>  -21.0046    1.0000 </r>
       <r>  -20.9690    1.0000 </r>
       <r>  -20.9263    1.0000 </r>
       <r>  -20.8758    1.0000 </r>
       <r>  -20.7445    1.0000 </r>
       <r>  -20.7025    1.0000 </r>
       <r>  -20.6636    1.0000 </r>
       <r>  -20.5938    1.0000 </r>
       <r>  -20.5688    1.0000 </r>
       <r>  -20.4274    1.0000 </r>
       <r>  -19.9813    1.0000 </r>
       <r>  -19.9244    1.0000 </r>
       <r>  -19.8041    1.0000 </r>
       <r>  -19.7631    1.0000 </r>
       <r>  -19.7363    1.0000 </r>
       <r>  -19.7354    1.0000 </r>
       <r>  -19.7062    1.0000 </r>
       <r>  -19.6979    1.0000 </r>
       <r>  -19.6426    1.0000 </r>
       <r>  -19.6404    1.0000 </r>
       <r>  -19.6292    1.0000 </r>
       <r>  -19.4926    1.0000 </r>
       <r>  -19.4075    1.0000 </r>
       <r>  -19.3636    1.0000 </r>
       <r>  -19.3559    1.0000 </r>
       <r>  -19.2902    1.0000 </r>
       <r>  -19.2376    1.0000 </r>
       <r>  -19.1071    1.0000 </r>
       <r>  -18.9996    1.0000 </r>
       <r>  -18.9315    1.0000 </r>
       <r>  -18.8753    1.0000 </r>
       <r>  -18.8527    1.0000 </r>
       <r>  -18.8367    1.0000 </r>
       <r>  -18.7661    1.0000 </r>
       <r>  -18.7500    1.0000 </r>
       <r>  -18.7271    1.0000 </r>
       <r>  -18.7131    1.0000 </r>
       <r>  -18.6925    1.0000 </r>
       <r>  -18.4479    1.0000 </r>
       <r>  -14.1416    1.0000 </r>
       <r>  -13.1825    1.0000 </r>
       <r>  -13.1569    1.0000 </r>
       <r>  -13.1094    1.0000 </r>
       <r>  -13.1030    1.0000 </r>
       <r>  -13.0796    1.0000 </r>
       <r>  -13.0160    1.0000 </r>
       <r>  -12.9584    1.0000 </r>
       <r>  -12.9502    1.0000 </r>
       <r>  -12.9359    1.0000 </r>
       <r>  -12.8048    1.0000 </r>
       <r>  -12.7679    1.0000 </r>
       <r>  -12.6022    1.0000 </r>
       <r>  -12.5039    1.0000 </r>
       <r>  -12.4852    1.0000 </r>
       <r>  -12.3783    1.0000 </r>
       <r>  -12.3085    1.0000 </r>
       <r>  -12.2965    1.0000 </r>
       <r>  -12.1759    1.0000 </r>
       <r>  -11.9014    1.0000 </r>
       <r>  -11.8847    1.0000 </r>
       <r>  -11.7669    1.0000 </r>
       <r>  -11.7639    1.0000 </r>
       <r>  -11.7512    1.0000 </r>
       <r>  -11.7409    1.0000 </r>
       <r>  -11.6947    1.0000 </r>
       <r>  -11.6561    1.0000 </r>
       <r>  -11.6306    1.0000 </r>
       <r>  -11.5434    1.0000 </r>
       <r>  -11.4215    1.0000 </r>
       <r>  -11.2005    1.0000 </r>
       <r>  -11.1245    1.0000 </r>
       <r>  -11.0842    1.0000 </r>
       <r>  -11.0572    1.0000 </r>
       <r>  -10.9657    1.0000 </r>
       <r>  -10.9138    1.0000 </r>
       <r>  -10.6853    1.0000 </r>
       <r>  -10.4614    1.0000 </r>
       <r>  -10.4302    1.0000 </r>
       <r>  -10.3494    1.0000 </r>
       <r>  -10.2557    1.0000 </r>
       <r>  -10.2064    1.0000 </r>
       <r>   -9.8900    1.0000 </r>
       <r>   -9.7684    1.0000 </r>
       <r>   -9.7650    1.0000 </r>
       <r>   -9.7245    1.0000 </r>
       <r>   -9.6774    1.0000 </r>
       <r>   -9.5864    1.0000 </r>
       <r>   -9.5421    1.0000 </r>
       <r>   -9.4976    1.0000 </r>
       <r>   -9.4638    1.0000 </r>
       <r>   -9.3523    1.0000 </r>
       <r>   -9.3456    1.0000 </r>
       <r>   -9.2879    1.0000 </r>
       <r>   -9.2611    1.0000 </r>
       <r>   -9.2557    1.0000 </r>
       <r>   -9.2508    1.0000 </r>
       <r>   -9.2371    1.0000 </r>
       <r>   -9.2233    1.0000 </r>
       <r>   -9.2230    1.0000 </r>
       <r>   -9.2069    1.0000 </r>
       <r>   -9.2028    1.0000 </r>
       <r>   -9.1990    1.0000 </r>
       <r>   -9.1968    1.0000 </r>
       <r>   -9.1550    1.0000 </r>
       <r>   -9.1348    1.0000 </r>
       <r>   -9.1125    1.0000 </r>
       <r>   -9.1107    1.0000 </r>
       <r>   -9.0987    1.0000 </r>
       <r>   -9.0439    1.0000 </r>
       <r>   -8.9935    1.0000 </r>
       <r>   -8.8448    1.0000 </r>
       <r>   -8.7952    1.0000 </r>
       <r>   -8.6540    1.0000 </r>
       <r>   -8.5084    1.0000 </r>
       <r>   -8.4808    1.0000 </r>
       <r>   -8.4423    1.0000 </r>
       <r>   -8.3278    1.0000 </r>
       <r>   -8.2230    1.0000 </r>
       <r>   -8.2013    1.0000 </r>
       <r>   -8.1976    1.0000 </r>
       <r>   -8.1707    1.0000 </r>
       <r>   -8.1485    1.0000 </r>
       <r>   -8.1226    1.0000 </r>
       <r>   -8.0382    1.0000 </r>
       <r>   -7.9709    1.0000 </r>
       <r>   -7.9506    1.0000 </r>
       <r>   -7.8721    1.0000 </r>
       <r>   -7.8474    1.0000 </r>
       <r>   -7.8457    1.0000 </r>
       <r>   -7.8012    1.0000 </r>
       <r>   -7.7989    1.0000 </r>
       <r>   -7.7978    1.0000 </r>
       <r>   -7.7373    1.0000 </r>
       <r>   -7.7342    1.0000 </r>
       <r>   -7.7119    1.0000 </r>
       <r>   -7.6777    1.0000 </r>
       <r>   -7.6771    1.0000 </r>
       <r>   -7.6626    1.0000 </r>
       <r>   -7.6383    1.0000 </r>
       <r>   -7.6319    1.0000 </r>
       <r>   -7.4411    1.0000 </r>
       <r>   -7.4369    1.0000 </r>
       <r>   -7.4240    1.0000 </r>
       <r>   -7.3844    1.0000 </r>
       <r>   -7.3597    1.0000 </r>
       <r>   -7.2693    1.0000 </r>
       <r>   -6.8317    1.0000 </r>
       <r>   -6.7579    1.0000 </r>
       <r>   -6.6209    1.0000 </r>
       <r>   -6.6062    1.0000 </r>
       <r>   -6.5425    1.0000 </r>
       <r>   -6.5400    1.0000 </r>
       <r>   -6.5001    1.0000 </r>
       <r>   -6.4887    1.0000 </r>
       <r>   -6.4566    1.0000 </r>
       <r>   -6.4534    1.0000 </r>
       <r>   -6.4400    1.0000 </r>
       <r>   -6.4393    1.0000 </r>
       <r>   -6.4097    1.0000 </r>
       <r>   -6.4039    1.0000 </r>
       <r>   -6.3580    1.0000 </r>
       <r>   -6.3467    1.0000 </r>
       <r>   -6.3182    1.0000 </r>
       <r>   -6.1100    1.0000 </r>
       <r>   -5.9691    1.0000 </r>
       <r>   -5.9240    1.0000 </r>
       <r>   -5.8859    1.0000 </r>
       <r>   -5.8797    1.0000 </r>
       <r>   -5.8614    1.0000 </r>
       <r>   -5.7816    1.0000 </r>
       <r>   -5.7791    1.0000 </r>
       <r>   -5.5271    1.0000 </r>
       <r>   -5.2207    1.0000 </r>
       <r>   -5.2059    1.0000 </r>
       <r>   -5.1962    1.0000 </r>
       <r>   -5.1412    1.0000 </r>
       <r>   -5.1323    1.0000 </r>
       <r>   -5.1043    1.0000 </r>
       <r>   -4.9998    1.0000 </r>
       <r>   -4.9440    1.0000 </r>
       <r>   -4.9167    1.0000 </r>
       <r>   -4.9068    1.0000 </r>
       <r>   -4.8989    1.0000 </r>
       <r>   -4.7340    1.0000 </r>
       <r>   -1.3236    1.0000 </r>
       <r>   -1.2044    0.0000 </r>
       <r>    0.0577    0.0000 </r>
       <r>    0.2051    0.0000 </r>
       <r>    0.2402    0.0000 </r>
       <r>    0.2594    0.0000 </r>
       <r>    0.2618    0.0000 </r>
       <r>    0.3042    0.0000 </r>
       <r>    0.3045    0.0000 </r>
       <r>    0.3786    0.0000 </r>
       <r>    0.3943    0.0000 </r>
       <r>    0.4343    0.0000 </r>
       <r>    0.4803    0.0000 </r>
       <r>    0.5264    0.0000 </r>
       <r>    0.6106    0.0000 </r>
       <r>    0.7473    0.0000 </r>
       <r>    0.7490    0.0000 </r>
       <r>    0.7777    0.0000 </r>
       <r>    0.8062    0.0000 </r>
       <r>    0.8123    0.0000 </r>
       <r>    0.8292    0.0000 </r>
       <r>    0.8385    0.0000 </r>
       <r>    0.8589    0.0000 </r>
       <r>    0.8708    0.0000 </r>
       <r>    0.9803    0.0000 </r>
       <r>    1.0196    0.0000 </r>
       <r>    1.0584    0.0000 </r>
       <r>    1.1188    0.0000 </r>
       <r>    1.4953    0.0000 </r>
       <r>    1.6733    0.0000 </r>
       <r>    1.6972    0.0000 </r>
       <r>    1.7065    0.0000 </r>
       <r>    1.7240    0.0000 </r>
       <r>    1.7403    0.0000 </r>
       <r>    1.7446    0.0000 </r>
       <r>    1.8053    0.0000 </r>
       <r>    1.8072    0.0000 </r>
       <r>    1.8468    0.0000 </r>
       <r>    1.8473    0.0000 </r>
       <r>    1.8790    0.0000 </r>
       <r>    1.8815    0.0000 </r>
       <r>    1.9061    0.0000 </r>
       <r>    1.9066    0.0000 </r>
       <r>    1.9322    0.0000 </r>
       <r>    1.9812    0.0000 </r>
       <r>    2.0293    0.0000 </r>
       <r>    2.1033    0.0000 </r>
       <r>    2.1136    0.0000 </r>
       <r>    2.1219    0.0000 </r>
       <r>    2.1317    0.0000 </r>
       <r>    2.1358    0.0000 </r>
      </set>
     </set>
    </set>
   </array>
  </eigenvalues>
  <separator name="orbital magnetization" >
   <v name="MAGDIPOLOUT">      0.00000000      0.00000000      0.00000000</v>
  </separator>
  <dos>
   <i name="efermi">     -1.25641209 </i>
   <total>
    <array>
     <dimension dim="1">gridpoints</dimension>
     <dimension dim="2">spin</dimension>
     <field>energy</field>
     <field>total</field>
     <field>integrated</field>
     <set>
      <set comment="spin 1">
       <r>   -23.7760     0.0000     0.0000 </r>
       <r>   -23.6855     0.0000     0.0000 </r>
       <r>   -23.5950     0.0000     0.0000 </r>
       <r>   -23.5045     0.0000     0.0000 </r>
       <r>   -23.4140     0.0000     0.0000 </r>
       <r>   -23.3235     0.0000     0.0000 </r>
       <r>   -23.2331     0.0000     0.0000 </r>
       <r>   -23.1426     0.0000     0.0000 </r>
       <r>   -23.0521     0.0000     0.0000 </r>
       <r>   -22.9616     0.0000     0.0000 </r>
       <r>   -22.8711     0.0000     0.0000 </r>
       <r>   -22.7806     0.0000     0.0000 </r>
       <r>   -22.6901     0.0000     0.0000 </r>
       <r>   -22.5997     0.0000     0.0000 </r>
       <r>   -22.5092    22.1030     2.0000 </r>
       <r>   -22.4187     0.0000     2.0000 </r>
       <r>   -22.3282     0.0000     2.0000 </r>
       <r>   -22.2377     0.0000     2.0000 </r>
       <r>   -22.1472     0.0000     2.0000 </r>
       <r>   -22.0568     0.0000     2.0000 </r>
       <r>   -21.9663    22.1030     4.0000 </r>
       <r>   -21.8758     0.0000     4.0000 </r>
       <r>   -21.7853     0.9989     4.0904 </r>
       <r>   -21.6948    55.5262     9.1147 </r>
       <r>   -21.6043    43.5952    13.9447 </r>
       <r>   -21.5138     0.0000    14.0000 </r>
       <r>   -21.4234     0.0000    14.0000 </r>
       <r>   -21.3329     0.0000    14.0000 </r>
       <r>   -21.2424     4.5523    14.4119 </r>
       <r>   -21.1519     0.0000    16.0000 </r>
       <r>   -21.0614    19.4624    17.7611 </r>
       <r>   -20.9709    30.7240    20.7801 </r>
       <r>   -20.8804    27.7636    24.5122 </r>
       <r>   -20.7900     0.0000    26.0000 </r>
       <r>   -20.6995    36.7847    29.3285 </r>
       <r>   -20.6090    22.4480    32.0312 </r>
       <r>   -20.5185    43.8611    36.0000 </r>
       <r>   -20.4280    10.3087    36.9328 </r>
       <r>   -20.3375     0.0000    38.0000 </r>
       <r>   -20.2470     0.0000    38.0000 </r>
       <r>   -20.1566     0.0000    38.0000 </r>
       <r>   -20.0661     0.0000    38.0000 </r>
       <r>   -19.9756    17.4542    39.5794 </r>
       <r>   -19.8851    22.1030    42.0000 </r>
       <r>   -19.7946    20.1125    43.8199 </r>
       <r>   -19.7041    84.1150    51.6112 </r>
       <r>   -19.6136    65.9949    59.9716 </r>
       <r>   -19.5232     0.0002    60.0000 </r>
       <r>   -19.4327    22.1070    62.0004 </r>
       <r>   -19.3422    65.6997    67.9452 </r>
       <r>   -19.2517    22.6151    70.0463 </r>
       <r>   -19.1612    21.5909    72.0000 </r>
       <r>   -19.0707    22.1030    74.0000 </r>
       <r>   -18.9802    22.0353    75.9939 </r>
       <r>   -18.8898    22.5484    78.0403 </r>
       <r>   -18.7993    65.8637    84.0000 </r>
       <r>   -18.7088    82.5339    91.4681 </r>
       <r>   -18.6183    21.8647    94.0000 </r>
       <r>   -18.5278     0.0000    94.0000 </r>
       <r>   -18.4373    20.6004    95.8640 </r>
       <r>   -18.3468     0.0000    96.0000 </r>
       <r>   -18.2564     0.0000    96.0000 </r>
       <r>   -18.1659     0.0000    96.0000 </r>
       <r>   -18.0754     0.0000    96.0000 </r>
       <r>   -17.9849     0.0000    96.0000 </r>
       <r>   -17.8944     0.0000    96.0000 </r>
       <r>   -17.8039     0.0000    96.0000 </r>
       <r>   -17.7135     0.0000    96.0000 </r>
       <r>   -17.6230     0.0000    96.0000 </r>
       <r>   -17.5325     0.0000    96.0000 </r>
       <r>   -17.4420     0.0000    96.0000 </r>
       <r>   -17.3515     0.0000    96.0000 </r>
       <r>   -17.2610     0.0000    96.0000 </r>
       <r>   -17.1705     0.0000    96.0000 </r>
       <r>   -17.0801     0.0000    96.0000 </r>
       <r>   -16.9896     0.0000    96.0000 </r>
       <r>   -16.8991     0.0000    96.0000 </r>
       <r>   -16.8086     0.0000    96.0000 </r>
       <r>   -16.7181     0.0000    96.0000 </r>
       <r>   -16.6276     0.0000    96.0000 </r>
       <r>   -16.5371     0.0000    96.0000 </r>
       <r>   -16.4467     0.0000    96.0000 </r>
       <r>   -16.3562     0.0000    96.0000 </r>
       <r>   -16.2657     0.0000    96.0000 </r>
       <r>   -16.1752     0.0000    96.0000 </r>
       <r>   -16.0847     0.0000    96.0000 </r>
       <r>   -15.9942     0.0000    96.0000 </r>
       <r>   -15.9037     0.0000    96.0000 </r>
       <r>   -15.8133     0.0000    96.0000 </r>
       <r>   -15.7228     0.0000    96.0000 </r>
       <r>   -15.6323     0.0000    96.0000 </r>
       <r>   -15.5418     0.0000    96.0000 </r>
       <r>   -15.4513     0.0000    96.0000 </r>
       <r>   -15.3608     0.0000    96.0000 </r>
       <r>   -15.2703     0.0000    96.0000 </r>
       <r>   -15.1799     0.0000    96.0000 </r>
       <r>   -15.0894     0.0000    96.0000 </r>
       <r>   -14.9989     0.0000    96.0000 </r>
       <r>   -14.9084     0.0000    96.0000 </r>
       <r>   -14.8179     0.0000    96.0000 </r>
       <r>   -14.7274     0.0000    96.0000 </r>
       <r>   -14.6369     0.0000    96.0000 </r>
       <r>   -14.5465     0.0000    96.0000 </r>
       <r>   -14.4560     0.0000    96.0000 </r>
       <r>   -14.3655     0.0000    96.0000 </r>
       <r>   -14.2750     0.0000    96.0000 </r>
       <r>   -14.1845     0.0000    96.0000 </r>
       <r>   -14.0940    22.1030    98.0000 </r>
       <r>   -14.0035     0.0000    98.0000 </r>
       <r>   -13.9131     0.0000    98.0000 </r>
       <r>   -13.8226     0.0000    98.0000 </r>
       <r>   -13.7321     0.0000    98.0000 </r>
       <r>   -13.6416     0.0000    98.0000 </r>
       <r>   -13.5511     0.0000    98.0000 </r>
       <r>   -13.4606     0.0000    98.0000 </r>
       <r>   -13.3701     0.0000    98.0000 </r>
       <r>   -13.2797     0.0000    98.0000 </r>
       <r>   -13.1892     3.7859    98.3426 </r>
       <r>   -13.0987    58.9245   105.3318 </r>
       <r>   -13.0082    41.1363   109.7293 </r>
       <r>   -12.9177    66.1983   115.9900 </r>
       <r>   -12.8272     0.0166   116.0015 </r>
       <r>   -12.7368    44.1893   120.0000 </r>
       <r>   -12.6463     0.0000   120.0000 </r>
       <r>   -12.5558    22.1030   122.0000 </r>
       <r>   -12.4653    44.1518   125.9951 </r>
       <r>   -12.3748    15.2009   127.3755 </r>
       <r>   -12.2843    43.2554   131.9140 </r>
       <r>   -12.1938     0.1260   132.0114 </r>
       <r>   -12.1034    21.9770   134.0000 </r>
       <r>   -12.0129     0.0000   134.0000 </r>
       <r>   -11.9224     0.0336   134.0030 </r>
       <r>   -11.8319    44.1724   138.0000 </r>
       <r>   -11.7414    74.8384   144.7718 </r>
       <r>   -11.6509    39.1413   149.5417 </r>
       <r>   -11.5604    22.2355   152.0160 </r>
       <r>   -11.4700    21.9267   154.0000 </r>
       <r>   -11.3795    22.1030   156.0000 </r>
       <r>   -11.2890     0.0000   156.0000 </r>
       <r>   -11.1985    13.4678   157.2186 </r>
       <r>   -11.1080    21.8935   159.9810 </r>
       <r>   -11.0175    44.1978   164.0000 </r>
       <r>   -10.9270    22.7718   166.0605 </r>
       <r>   -10.8366    21.4342   168.0000 </r>
       <r>   -10.7461     0.0000   168.0000 </r>
       <r>   -10.6556    22.1027   170.0000 </r>
       <r>   -10.5651     0.0000   170.0000 </r>
       <r>   -10.4746     0.6714   170.0608 </r>
       <r>   -10.3841    43.5346   174.0000 </r>
       <r>   -10.2936    22.1030   176.0000 </r>
       <r>   -10.2032    37.0025   179.3482 </r>
       <r>   -10.1127     0.0000   180.0000 </r>
       <r>   -10.0222     0.0000   180.0000 </r>
       <r>    -9.9317     0.0000   180.0000 </r>
       <r>    -9.8412    22.1030   182.0000 </r>
       <r>    -9.7507    43.5878   185.9441 </r>
       <r>    -9.6602    44.0351   189.9848 </r>
       <r>    -9.5698    21.9002   191.9817 </r>
       <r>    -9.4793    44.4096   196.0185 </r>
       <r>    -9.3888    21.7910   198.0000 </r>
       <r>    -9.2983    45.7804   202.1425 </r>
       <r>    -9.2078   150.7626   217.6418 </r>
       <r>    -9.1173    74.2530   228.8384 </r>
       <r>    -9.0268    43.9407   235.9842 </r>
       <r>    -8.9364    22.1030   238.0000 </r>
       <r>    -8.8459     9.7545   238.8826 </r>
       <r>    -8.7554    22.1030   242.0000 </r>
       <r>    -8.6649     1.3526   242.1224 </r>
       <r>    -8.5744    20.7504   244.0000 </r>
       <r>    -8.4839    29.3226   246.6533 </r>
       <r>    -8.3935    22.1030   250.0000 </r>
       <r>    -8.3030    22.0981   251.9996 </r>
       <r>    -8.2125    22.2556   254.0138 </r>
       <r>    -8.1220    98.5025   263.0628 </r>
       <r>    -8.0315    18.3327   265.6588 </r>
       <r>    -7.9410    42.2883   269.8265 </r>
       <r>    -7.8505    34.8394   273.1525 </r>
       <r>    -7.7601    66.3259   282.0015 </r>
       <r>    -7.6696   108.1688   291.7892 </r>
       <r>    -7.5791    44.2059   298.0000 </r>
       <r>    -7.4886     0.0000   298.0000 </r>
       <r>    -7.3981    66.8910   304.0527 </r>
       <r>    -7.3076    43.6212   308.0000 </r>
       <r>    -7.2171    22.1030   310.0000 </r>
       <r>    -7.1267     0.0000   310.0000 </r>
       <r>    -7.0362     0.0000   310.0000 </r>
       <r>    -6.9457     0.0000   310.0000 </r>
       <r>    -6.8552     0.0098   310.0009 </r>
       <r>    -6.7647    25.7719   312.3329 </r>
       <r>    -6.6742     0.0000   314.0000 </r>
       <r>    -6.5837    44.1893   317.9985 </r>
       <r>    -6.4933    68.3711   324.1866 </r>
       <r>    -6.4028   119.2763   336.7928 </r>
       <r>    -6.3123    61.8185   343.5937 </r>
       <r>    -6.2218     0.0000   344.0000 </r>
       <r>    -6.1313     0.0279   344.0025 </r>
       <r>    -6.0408    22.0751   346.0000 </r>
       <r>    -5.9503    22.0184   347.9923 </r>
       <r>    -5.8599    79.1643   355.1634 </r>
       <r>    -5.7694    41.4074   359.7468 </r>
       <r>    -5.6789     0.0000   360.0000 </r>
       <r>    -5.5884     0.0000   360.0000 </r>
       <r>    -5.4979    22.1026   362.0000 </r>
       <r>    -5.4074     0.0000   362.0000 </r>
       <r>    -5.3169     0.0000   362.0000 </r>
       <r>    -5.2265     4.6594   362.4216 </r>
       <r>    -5.1360    67.8119   370.1396 </r>
       <r>    -5.0455    22.1029   374.0000 </r>
       <r>    -4.9550    23.4366   376.1207 </r>
       <r>    -4.8645    87.0784   384.0000 </r>
       <r>    -4.7740     0.0000   384.0000 </r>
       <r>    -4.6835    22.1030   386.0000 </r>
       <r>    -4.5931     0.0000   386.0000 </r>
       <r>    -4.5026     0.0000   386.0000 </r>
       <r>    -4.4121     0.0000   386.0000 </r>
       <r>    -4.3216     0.0000   386.0000 </r>
       <r>    -4.2311     0.0000   386.0000 </r>
       <r>    -4.1406     0.0000   386.0000 </r>
       <r>    -4.0501     0.0000   386.0000 </r>
       <r>    -3.9597     0.0000   386.0000 </r>
       <r>    -3.8692     0.0000   386.0000 </r>
       <r>    -3.7787     0.0000   386.0000 </r>
       <r>    -3.6882     0.0000   386.0000 </r>
       <r>    -3.5977     0.0000   386.0000 </r>
       <r>    -3.5072     0.0000   386.0000 </r>
       <r>    -3.4168     0.0000   386.0000 </r>
       <r>    -3.3263     0.0000   386.0000 </r>
       <r>    -3.2358     0.0000   386.0000 </r>
       <r>    -3.1453     0.0000   386.0000 </r>
       <r>    -3.0548     0.0000   386.0000 </r>
       <r>    -2.9643     0.0000   386.0000 </r>
       <r>    -2.8738     0.0000   386.0000 </r>
       <r>    -2.7834     0.0000   386.0000 </r>
       <r>    -2.6929     0.0000   386.0000 </r>
       <r>    -2.6024     0.0000   386.0000 </r>
       <r>    -2.5119     0.0000   386.0000 </r>
       <r>    -2.4214     0.0000   386.0000 </r>
       <r>    -2.3309     0.0000   386.0000 </r>
       <r>    -2.2404     0.0000   386.0000 </r>
       <r>    -2.1500     0.0000   386.0000 </r>
       <r>    -2.0595     0.0000   386.0000 </r>
       <r>    -1.9690     0.0000   386.0000 </r>
       <r>    -1.8785     0.0000   386.0000 </r>
       <r>    -1.7880     0.0000   386.0000 </r>
       <r>    -1.6975     0.0000   386.0000 </r>
       <r>    -1.6070     0.0000   386.0000 </r>
       <r>    -1.5166     0.0000   386.0000 </r>
       <r>    -1.4261     0.0000   386.0000 </r>
       <r>    -1.3356     0.9974   386.0903 </r>
       <r>    -1.2451    21.1056   388.0000 </r>
       <r>    -1.1546    22.1030   390.0000 </r>
       <r>    -1.0641     0.0000   390.0000 </r>
       <r>    -0.9736     0.0000   390.0000 </r>
       <r>    -0.8832     0.0000   390.0000 </r>
       <r>    -0.7927     0.0000   390.0000 </r>
       <r>    -0.7022     0.0000   390.0000 </r>
       <r>    -0.6117     0.0000   390.0000 </r>
       <r>    -0.5212     0.0000   390.0000 </r>
       <r>    -0.4307     0.0000   390.0000 </r>
       <r>    -0.3402     0.0000   390.0000 </r>
       <r>    -0.2498     0.0000   390.0000 </r>
       <r>    -0.1593     0.0000   390.0000 </r>
       <r>    -0.0688     0.0000   390.0000 </r>
       <r>     0.0217     0.0000   390.0000 </r>
       <r>     0.1122    22.1030   392.0000 </r>
       <r>     0.2027     8.1164   392.7344 </r>
       <r>     0.2932    68.8208   400.2273 </r>
       <r>     0.3836    59.9754   405.6542 </r>
       <r>     0.4741    47.0222   410.3852 </r>
       <r>     0.5646    22.1030   414.0000 </r>
       <r>     0.6551    22.1030   416.0000 </r>
       <r>     0.7456    15.9566   417.4438 </r>
       <r>     0.8361    92.7725   428.3946 </r>
       <r>     0.9265    44.1926   434.0000 </r>
       <r>     1.0170    30.0809   436.7219 </r>
       <r>     1.1075    23.3278   440.1108 </r>
       <r>     1.1980    20.8782   442.0000 </r>
       <r>     1.2885     0.0000   442.0000 </r>
       <r>     1.3790     0.0000   442.0000 </r>
       <r>     1.4695     0.0028   442.0003 </r>
       <r>     1.5599    22.1002   444.0000 </r>
       <r>     1.6504     0.0134   444.0012 </r>
       <r>     1.7409   106.7946   453.6646 </r>
       <r>     1.8314    44.7953   460.0533 </r>
       <r>     1.9219   133.0021   472.0889 </r>
       <r>     2.0124    22.2859   476.0166 </r>
       <r>     2.1029    33.8573   479.0802 </r>
       <r>     2.1933    86.9161   488.0000 </r>
       <r>     2.2838     0.0000   488.0000 </r>
       <r>     2.3743     0.0000   488.0000 </r>
       <r>     2.4648     0.0000   488.0000 </r>
       <r>     2.5553     0.0000   488.0000 </r>
       <r>     2.6458     0.0000   488.0000 </r>
       <r>     2.7363     0.0000   488.0000 </r>
       <r>     2.8267     0.0000   488.0000 </r>
       <r>     2.9172     0.0000   488.0000 </r>
       <r>     3.0077     0.0000   488.0000 </r>
       <r>     3.0982     0.0000   488.0000 </r>
       <r>     3.1887     0.0000   488.0000 </r>
       <r>     3.2792     0.0000   488.0000 </r>
       <r>     3.3697     0.0000   488.0000 </r>
      </set>
     </set>
    </array>
   </total>
  </dos>
 </calculation>
 <structure name="finalpos" >
  <crystal>
   <varray name="basis" >
    <v>      17.59966831       0.00000000       0.00000000 </v>
    <v>      -8.79983416      15.24175986       0.00000000 </v>
    <v>       0.00000000       0.00000000      19.92151445 </v>
   </varray>
   <i name="volume">   5343.94461817 </i>
   <varray name="rec_basis" >
    <v>       0.05681925       0.03280461       0.00000000 </v>
    <v>       0.00000000       0.06560922       0.00000000 </v>
    <v>       0.00000000       0.00000000       0.05019699 </v>
   </varray>
  </crystal>
  <varray name="positions" >
   <v>       0.99943010       0.00005992       0.50000000 </v>
   <v>       0.14164706       0.99871895       0.50000000 </v>
   <v>       0.28492260       0.99841663       0.50000000 </v>
   <v>       0.42850047       0.99871895       0.50000000 </v>
   <v>       0.57205839       0.00005992       0.50000000 </v>
   <v>       0.71530655       0.00214292       0.50000000 </v>
   <v>       0.85826494       0.00214292       0.50000000 </v>
   <v>       0.00080792       0.14408264       0.50000000 </v>
   <v>       0.14259355       0.14244783       0.50000000 </v>
   <v>       0.28470221       0.14112972       0.50000000 </v>
   <v>       0.42785608       0.14112972       0.50000000 </v>
   <v>       0.57128286       0.14244783       0.50000000 </v>
   <v>       0.71470329       0.14408264       0.50000000 </v>
   <v>       0.85805263       0.14467669       0.50000000 </v>
   <v>       0.00095476       0.28713011       0.50000000 </v>
   <v>       0.14372552       0.28645370       0.50000000 </v>
   <v>       0.28540977       0.28469374       0.50000000 </v>
   <v>       0.42724431       0.28306005       0.50000000 </v>
   <v>       0.57071254       0.28469374       0.50000000 </v>
   <v>       0.71415674       0.28645370       0.50000000 </v>
   <v>       0.85760392       0.28713011       0.50000000 </v>
   <v>       0.00054479       0.42966101       0.50000000 </v>
   <v>       0.14422690       0.42957551       0.50000000 </v>
   <v>       0.28730213       0.42918005       0.50000000 </v>
   <v>       0.42797654       0.42569726       0.50000000 </v>
   <v>       0.56914930       0.42569726       0.50000000 </v>
   <v>       0.71330650       0.42918005       0.50000000 </v>
   <v>       0.85677719       0.42957551       0.50000000 </v>
   <v>       0.99928255       0.57181462       0.50000000 </v>
   <v>       0.14396064       0.57181462       0.50000000 </v>
   <v>       0.28862787       0.57181625       0.50000000 </v>
   <v>       0.43313209       0.57215564       0.50000000 </v>
   <v>       0.71045212       0.57215564       0.50000000 </v>
   <v>       0.85461695       0.57181625       0.50000000 </v>
   <v>       0.99707234       0.71370518       0.50000000 </v>
   <v>       0.14255519       0.71368182       0.50000000 </v>
   <v>       0.28806142       0.71370518       0.50000000 </v>
   <v>       0.43464191       0.71382540       0.50000000 </v>
   <v>       0.58510826       0.71626937       0.50000000 </v>
   <v>       0.70258968       0.71626937       0.50000000 </v>
   <v>       0.85061206       0.71382540       0.50000000 </v>
   <v>       0.99777175       0.85613493       0.50000000 </v>
   <v>       0.14160898       0.85591288       0.50000000 </v>
   <v>       0.28573247       0.85591288       0.50000000 </v>
   <v>       0.42979175       0.85613493       0.50000000 </v>
   <v>       0.57342541       0.85758690       0.50000000 </v>
   <v>       0.71640633       0.86138410       0.50000000 </v>
   <v>       0.85559006       0.85758690       0.50000000 </v>
   <v>       0.04754270       0.09547788       0.50000000 </v>
   <v>       0.18957833       0.09405657       0.50000000 </v>
   <v>       0.33254182       0.09365506       0.50000000 </v>
   <v>       0.47590681       0.09405657       0.50000000 </v>
   <v>       0.61936376       0.09547788       0.50000000 </v>
   <v>       0.76280004       0.09719274       0.50000000 </v>
   <v>       0.90582126       0.09719274       0.50000000 </v>
   <v>       0.04854983       0.23934281       0.50000000 </v>
   <v>       0.19048138       0.23782962       0.50000000 </v>
   <v>       0.33234878       0.23634667       0.50000000 </v>
   <v>       0.47542646       0.23634667       0.50000000 </v>
   <v>       0.61877681       0.23782962       0.50000000 </v>
   <v>       0.76222155       0.23934281       0.50000000 </v>
   <v>       0.90562797       0.23982737       0.50000000 </v>
   <v>       0.04871288       0.38232824       0.50000000 </v>
   <v>       0.19188940       0.38184213       0.50000000 </v>
   <v>       0.33352206       0.38013969       0.50000000 </v>
   <v>       0.47472270       0.37801683       0.50000000 </v>
   <v>       0.61804620       0.38013969       0.50000000 </v>
   <v>       0.76138130       0.38184213       0.50000000 </v>
   <v>       0.90504393       0.38232824       0.50000000 </v>
   <v>       0.04810654       0.52478452       0.50000000 </v>
   <v>       0.19263929       0.52476864       0.50000000 </v>
   <v>       0.33696521       0.52455433       0.50000000 </v>
   <v>       0.47833704       0.52146721       0.50000000 </v>
   <v>       0.61455874       0.52146721       0.50000000 </v>
   <v>       0.75901769       0.52455433       0.50000000 </v>
   <v>       0.90355792       0.52476864       0.50000000 </v>
   <v>       0.04642473       0.66685228       0.50000000 </v>
   <v>       0.19185612       0.66685228       0.50000000 </v>
   <v>       0.33777931       0.66688794       0.50000000 </v>
   <v>       0.48615700       0.66710760       0.50000000 </v>
   <v>       0.75237918       0.66710760       0.50000000 </v>
   <v>       0.90053720       0.66688794       0.50000000 </v>
   <v>       0.04582562       0.80879365       0.50000000 </v>
   <v>       0.19009580       0.80876303       0.50000000 </v>
   <v>       0.33439660       0.80879365       0.50000000 </v>
   <v>       0.47844872       0.80897069       0.50000000 </v>
   <v>       0.62171868       0.81129474       0.49962381 </v>
   <v>       0.76062845       0.81129474       0.50000000 </v>
   <v>       0.90195054       0.80897069       0.50000000 </v>
   <v>       0.04629157       0.95154386       0.50000000 </v>
   <v>       0.18948291       0.95113037       0.50000000 </v>
   <v>       0.33307603       0.95113037       0.50000000 </v>
   <v>       0.47668087       0.95154386       0.50000000 </v>
   <v>       0.62015751       0.95313740       0.50000000 </v>
   <v>       0.76355772       0.95568687       0.50000000 </v>
   <v>       0.90440847       0.95313740       0.50000000 </v>
   <v>       0.56830873       0.56518888       0.50000000 </v>
  </varray>
 </structure>
</modeling>
