<?xml version="1.0" encoding="ISO-8859-1"?>
<modeling>
 <generator>
  <i name="program" type="string">vasp </i>
  <i name="version" type="string">5.4.4.18Apr17-6-g9f103f2a35  </i>
  <i name="subversion" type="string">(build Oct 18 2020 22:16:12) gamma-only         parallel </i>
  <i name="platform" type="string">UA-vaughan-2020a </i>
  <i name="date" type="string">2023 03 21 </i>
  <i name="time" type="string">18:12:22 </i>
 </generator>
 <incar>
  <i type="string" name="PREC">accurate</i>
  <i type="int" name="IALGO">    38</i>
  <i type="logical" name="ADDGRID"> T  </i>
  <i type="int" name="NELMIN">     5</i>
  <i type="int" name="IBRION">    -1</i>
  <i name="EDIFF">      0.00000001</i>
  <i name="EDIFFG">     -0.00000001</i>
  <i type="int" name="NSW">     0</i>
  <i type="int" name="ISIF">     2</i>
  <i name="ENCUT">    500.00000000</i>
  <i type="logical" name="LREAL"> F  </i>
  <i type="int" name="ISMEAR">     0</i>
  <i name="SIGMA">      0.01000000</i>
  <i type="logical" name="LWAVE"> F  </i>
  <i type="logical" name="LCHARG"> F  </i>
  <v type="int" name="KPOINT_BSE">    -1     0     0     0</v>
 </incar>
 <structure name="primitive_cell" >
  <crystal>
   <varray name="basis" >
    <v>      17.59966831       0.00000000       0.00000000 </v>
    <v>      -8.79983416      15.24175986       0.00000000 </v>
    <v>       0.00000000       0.00000000      19.92151445 </v>
   </varray>
   <i name="volume">   5343.94461817 </i>
   <varray name="rec_basis" >
    <v>       0.05681925       0.03280461       0.00000000 </v>
    <v>       0.00000000       0.06560922       0.00000000 </v>
    <v>       0.00000000       0.00000000       0.05019699 </v>
   </varray>
  </crystal>
  <varray name="positions" >
   <v>      -0.00056990       0.00005992      -0.50000000 </v>
   <v>      -0.09559153      -0.04686260      -0.50000000 </v>
   <v>       0.04629157      -0.04845614      -0.50000000 </v>
   <v>       0.04754270       0.09547788      -0.50000000 </v>
   <v>      -0.14173506       0.00214292      -0.50000000 </v>
   <v>       0.14259355       0.14244783      -0.50000000 </v>
   <v>       0.14164706      -0.00128105      -0.50000000 </v>
   <v>      -0.00222825      -0.14386507      -0.50000000 </v>
   <v>      -0.14440994      -0.14241310      -0.50000000 </v>
   <v>       0.00080792       0.14408264      -0.50000000 </v>
   <v>       0.18957833       0.09405657      -0.50000000 </v>
   <v>      -0.09417874       0.09719274      -0.50000000 </v>
   <v>      -0.09804946      -0.19102931      -0.50000000 </v>
   <v>      -0.23644228      -0.04431313      -0.50000000 </v>
   <v>      -0.23937155      -0.18870526      -0.50000000 </v>
   <v>       0.19048138       0.23782962      -0.50000000 </v>
   <v>       0.04582562      -0.19120635      -0.50000000 </v>
   <v>       0.18948291      -0.04886963      -0.50000000 </v>
   <v>       0.04854983       0.23934281      -0.50000000 </v>
   <v>      -0.28359367      -0.13861590      -0.50000000 </v>
   <v>       0.28470221       0.14112972      -0.50000000 </v>
   <v>      -0.14938794      -0.28617460      -0.50000000 </v>
   <v>       0.14160898      -0.14408712      -0.50000000 </v>
   <v>      -0.14194737       0.14505288      -0.49962381 </v>
   <v>       0.14372552       0.28645370      -0.50000000 </v>
   <v>      -0.28469345       0.00214292      -0.50000000 </v>
   <v>      -0.00292766      -0.28629482      -0.50000000 </v>
   <v>       0.28540977       0.28469374      -0.50000000 </v>
   <v>       0.00095476       0.28713011      -0.50000000 </v>
   <v>       0.28492260      -0.00158337      -0.50000000 </v>
   <v>      -0.29741032      -0.28373063      -0.50000000 </v>
   <v>      -0.09946280      -0.33311206      -0.50000000 </v>
   <v>       0.33234878       0.23634667      -0.50000000 </v>
   <v>      -0.23719996       0.09719274      -0.50000000 </v>
   <v>       0.33254182       0.09365506      -0.50000000 </v>
   <v>      -0.09437203       0.23982737      -0.50000000 </v>
   <v>      -0.24762082      -0.33289240      -0.50000000 </v>
   <v>      -0.37790513      -0.18870526      -0.50000000 </v>
   <v>       0.19188940       0.38184213      -0.50000000 </v>
   <v>       0.19009580      -0.19123697      -0.50000000 </v>
   <v>      -0.37984249      -0.04686260      -0.50000000 </v>
   <v>       0.04642473      -0.33314772      -0.50000000 </v>
   <v>       0.33352206       0.38013969      -0.50000000 </v>
   <v>       0.04871288       0.38232824      -0.50000000 </v>
   <v>       0.33307603      -0.04886963      -0.50000000 </v>
   <v>      -0.41489174      -0.28373063      -0.50000000 </v>
   <v>      -0.42657459      -0.14241310      -0.50000000 </v>
   <v>       0.42724431       0.28306005      -0.50000000 </v>
   <v>      -0.14538305      -0.42818375      -0.50000000 </v>
   <v>      -0.28529671       0.14408264      -0.50000000 </v>
   <v>      -0.28954788      -0.42784436      -0.50000000 </v>
   <v>       0.42785608       0.14112972      -0.50000000 </v>
   <v>      -0.14239608       0.28713011      -0.50000000 </v>
   <v>       0.14422690       0.42957551      -0.50000000 </v>
   <v>       0.28730213       0.42918005      -0.50000000 </v>
   <v>       0.14255519      -0.28631818      -0.50000000 </v>
   <v>       0.28573247      -0.14408712      -0.50000000 </v>
   <v>      -0.24098231      -0.47544567      -0.50000000 </v>
   <v>       0.47542646       0.23634667      -0.50000000 </v>
   <v>      -0.23777845       0.23934281      -0.50000000 </v>
   <v>       0.42797654       0.42569726      -0.50000000 </v>
   <v>      -0.42794161       0.00005992      -0.50000000 </v>
   <v>      -0.00071745      -0.42818538      -0.50000000 </v>
   <v>       0.00054479       0.42966101      -0.50000000 </v>
   <v>       0.42850047      -0.00128105      -0.50000000 </v>
   <v>      -0.43169127      -0.43481112      -0.50000000 </v>
   <v>       0.47472270       0.37801683      -0.50000000 </v>
   <v>      -0.09644208      -0.47523136      -0.50000000 </v>
   <v>      -0.38063624       0.09547788      -0.50000000 </v>
   <v>       0.47590681       0.09405657      -0.50000000 </v>
   <v>      -0.09495607       0.38232824      -0.50000000 </v>
   <v>      -0.38544126      -0.47853279      -0.50000000 </v>
   <v>       0.48615700      -0.33289240      -0.50000000 </v>
   <v>       0.47844872      -0.19102931      -0.50000000 </v>
   <v>       0.19263929      -0.47523136      -0.50000000 </v>
   <v>       0.33696521      -0.47544567      -0.50000000 </v>
   <v>       0.19185612      -0.33314772      -0.50000000 </v>
   <v>       0.33439660      -0.19120635      -0.50000000 </v>
   <v>       0.43464191      -0.28617460      -0.50000000 </v>
   <v>      -0.28669350       0.42918005      -0.50000000 </v>
   <v>      -0.42928746       0.28469374      -0.50000000 </v>
   <v>      -0.28584326       0.28645370      -0.50000000 </v>
   <v>       0.28862787      -0.42818375      -0.50000000 </v>
   <v>       0.28806142      -0.28629482      -0.50000000 </v>
   <v>       0.47668087      -0.04845614      -0.50000000 </v>
   <v>       0.47833704      -0.47853279      -0.50000000 </v>
   <v>       0.04810654      -0.47521548      -0.50000000 </v>
   <v>       0.43313209      -0.42784436      -0.50000000 </v>
   <v>       0.42979175      -0.14386507      -0.50000000 </v>
   <v>      -0.43085070       0.42569726      -0.50000000 </v>
   <v>      -0.14322281       0.42957551      -0.50000000 </v>
   <v>      -0.42871714       0.14244783      -0.50000000 </v>
   <v>       0.14396064      -0.42818538      -0.50000000 </v>
   <v>      -0.23861870       0.38184213      -0.50000000 </v>
   <v>      -0.38122319       0.23782962      -0.50000000 </v>
   <v>      -0.38195380       0.38013969      -0.50000000 </v>
   <v>       0.33777931      -0.33311206      -0.50000000 </v>
  </varray>
 </structure>
 <varray name="primitive_index" >
  <v type="int" >        1 </v>
  <v type="int" >       96 </v>
  <v type="int" >       90 </v>
  <v type="int" >       49 </v>
  <v type="int" >        7 </v>
  <v type="int" >        9 </v>
  <v type="int" >        2 </v>
  <v type="int" >       42 </v>
  <v type="int" >       48 </v>
  <v type="int" >        8 </v>
  <v type="int" >       50 </v>
  <v type="int" >       55 </v>
  <v type="int" >       89 </v>
  <v type="int" >       95 </v>
  <v type="int" >       88 </v>
  <v type="int" >       57 </v>
  <v type="int" >       83 </v>
  <v type="int" >       91 </v>
  <v type="int" >       56 </v>
  <v type="int" >       47 </v>
  <v type="int" >       10 </v>
  <v type="int" >       41 </v>
  <v type="int" >       43 </v>
  <v type="int" >       14 </v>
  <v type="int" >       16 </v>
  <v type="int" >        6 </v>
  <v type="int" >       35 </v>
  <v type="int" >       17 </v>
  <v type="int" >       15 </v>
  <v type="int" >        3 </v>
  <v type="int" >       40 </v>
  <v type="int" >       82 </v>
  <v type="int" >       58 </v>
  <v type="int" >       54 </v>
  <v type="int" >       51 </v>
  <v type="int" >       62 </v>
  <v type="int" >       81 </v>
  <v type="int" >       87 </v>
  <v type="int" >       64 </v>
  <v type="int" >       84 </v>
  <v type="int" >       94 </v>
  <v type="int" >       77 </v>
  <v type="int" >       65 </v>
  <v type="int" >       63 </v>
  <v type="int" >       92 </v>
  <v type="int" >       39 </v>
  <v type="int" >       46 </v>
  <v type="int" >       18 </v>
  <v type="int" >       34 </v>
  <v type="int" >       13 </v>
  <v type="int" >       33 </v>
  <v type="int" >       11 </v>
  <v type="int" >       21 </v>
  <v type="int" >       23 </v>
  <v type="int" >       24 </v>
  <v type="int" >       36 </v>
  <v type="int" >       44 </v>
  <v type="int" >       75 </v>
  <v type="int" >       59 </v>
  <v type="int" >       61 </v>
  <v type="int" >       25 </v>
  <v type="int" >        5 </v>
  <v type="int" >       29 </v>
  <v type="int" >       22 </v>
  <v type="int" >        4 </v>
  <v type="int" >       97 </v>
  <v type="int" >       66 </v>
  <v type="int" >       76 </v>
  <v type="int" >       53 </v>
  <v type="int" >       52 </v>
  <v type="int" >       69 </v>
  <v type="int" >       74 </v>
  <v type="int" >       80 </v>
  <v type="int" >       86 </v>
  <v type="int" >       71 </v>
  <v type="int" >       72 </v>
  <v type="int" >       78 </v>
  <v type="int" >       85 </v>
  <v type="int" >       38 </v>
  <v type="int" >       27 </v>
  <v type="int" >       19 </v>
  <v type="int" >       20 </v>
  <v type="int" >       31 </v>
  <v type="int" >       37 </v>
  <v type="int" >       93 </v>
  <v type="int" >       73 </v>
  <v type="int" >       70 </v>
  <v type="int" >       32 </v>
  <v type="int" >       45 </v>
  <v type="int" >       26 </v>
  <v type="int" >       28 </v>
  <v type="int" >       12 </v>
  <v type="int" >       30 </v>
  <v type="int" >       68 </v>
  <v type="int" >       60 </v>
  <v type="int" >       67 </v>
  <v type="int" >       79 </v>
 </varray>
 <kpoints>
  <generation param="Gamma">
   <v type="int" name="divisions">       1        1        1 </v>
   <v name="usershift">      0.00000000       0.00000000       0.00000000 </v>
   <v name="genvec1">      1.00000000      -0.00000000       0.00000000 </v>
   <v name="genvec2">      0.00000000       1.00000000       0.00000000 </v>
   <v name="genvec3">      0.00000000       0.00000000       1.00000000 </v>
   <v name="shift">      0.00000000       0.00000000       0.00000000 </v>
  </generation>
  <varray name="kpointlist" >
   <v>       0.00000000       0.00000000       0.00000000 </v>
  </varray>
  <varray name="weights" >
   <v>       1.00000000 </v>
  </varray>
 </kpoints>
 <parameters>
  <separator name="general" >
   <i type="string" name="SYSTEM">unknown system</i>
   <i type="logical" name="LCOMPAT"> F  </i>
  </separator>
  <separator name="electronic" >
   <i type="string" name="PREC">accura</i>
   <i name="ENMAX">    500.00000000</i>
   <i name="ENAUG">    644.87300000</i>
   <i name="EDIFF">      0.00000001</i>
   <i type="int" name="IALGO">    38</i>
   <i type="int" name="IWAVPR">    10</i>
   <i type="int" name="NBANDS">   244</i>
   <i name="NELECT">    388.00000000</i>
   <i type="int" name="TURBO">     0</i>
   <i type="int" name="IRESTART">     0</i>
   <i type="int" name="NREBOOT">     0</i>
   <i type="int" name="NMIN">     0</i>
   <i name="EREF">      0.00000000</i>
   <separator name="electronic smearing" >
    <i type="int" name="ISMEAR">     0</i>
    <i name="SIGMA">      0.01000000</i>
    <i name="KSPACING">      0.50000000</i>
    <i type="logical" name="KGAMMA"> T  </i>
   </separator>
   <separator name="electronic projectors" >
    <i type="logical" name="LREAL"> F  </i>
    <v name="ROPT">      0.00000000      0.00000000      0.00000000</v>
    <i type="int" name="LMAXPAW">  -100</i>
    <i type="int" name="LMAXMIX">     2</i>
    <i type="logical" name="NLSPLINE"> F  </i>
   </separator>
   <separator name="electronic startup" >
    <i type="int" name="ISTART">     0</i>
    <i type="int" name="ICHARG">     2</i>
    <i type="int" name="INIWAV">     1</i>
   </separator>
   <separator name="electronic spin" >
    <i type="int" name="ISPIN">     1</i>
    <i type="logical" name="LNONCOLLINEAR"> F  </i>
    <v name="MAGMOM">      1.00000000      1.00000000      1.00000000      1.00000000      1.00000000      1.00000000      1.00000000      1.00000000      1.00000000      1.00000000      1.00000000      1.00000000      1.00000000      1.00000000      1.00000000      1.00000000      1.00000000      1.00000000      1.00000000      1.00000000
      1.00000000      1.00000000      1.00000000      1.00000000      1.00000000      1.00000000      1.00000000      1.00000000      1.00000000      1.00000000      1.00000000      1.00000000      1.00000000      1.00000000      1.00000000      1.00000000      1.00000000      1.00000000      1.00000000      1.00000000
      1.00000000      1.00000000      1.00000000      1.00000000      1.00000000      1.00000000      1.00000000      1.00000000      1.00000000      1.00000000      1.00000000      1.00000000      1.00000000      1.00000000      1.00000000      1.00000000      1.00000000      1.00000000      1.00000000      1.00000000
      1.00000000      1.00000000      1.00000000      1.00000000      1.00000000      1.00000000      1.00000000      1.00000000      1.00000000      1.00000000      1.00000000      1.00000000      1.00000000      1.00000000      1.00000000      1.00000000      1.00000000      1.00000000      1.00000000      1.00000000
      1.00000000      1.00000000      1.00000000      1.00000000      1.00000000      1.00000000      1.00000000      1.00000000      1.00000000      1.00000000      1.00000000      1.00000000      1.00000000      1.00000000      1.00000000      1.00000000      1.00000000</v>
    <i name="NUPDOWN">     -1.00000000</i>
    <i type="logical" name="LSORBIT"> F  </i>
    <v name="SAXIS">      0.00000000      0.00000000      1.00000000</v>
    <i type="logical" name="LSPIRAL"> F  </i>
    <v name="QSPIRAL">      0.00000000      0.00000000      0.00000000</v>
    <i type="logical" name="LZEROZ"> F  </i>
   </separator>
   <separator name="electronic exchange-correlation" >
    <i type="logical" name="LASPH"> F  </i>
    <i type="logical" name="LMETAGGA"> F  </i>
   </separator>
   <separator name="electronic convergence" >
    <i type="int" name="NELM">    60</i>
    <i type="int" name="NELMDL">    -5</i>
    <i type="int" name="NELMIN">     5</i>
    <i name="ENINI">    500.00000000</i>
    <separator name="electronic convergence detail" >
     <i type="logical" name="LDIAG"> T  </i>
     <i type="logical" name="LSUBROT"> F  </i>
     <i name="WEIMIN">      0.00000000</i>
     <i name="EBREAK">      0.00000000</i>
     <i name="DEPER">      0.30000000</i>
     <i type="int" name="NRMM">     4</i>
     <i name="TIME">      0.40000000</i>
    </separator>
   </separator>
   <separator name="electronic mixer" >
    <i name="AMIX">      0.40000000</i>
    <i name="BMIX">      1.00000000</i>
    <i name="AMIN">      0.10000000</i>
    <i name="AMIX_MAG">      1.60000000</i>
    <i name="BMIX_MAG">      1.00000000</i>
    <separator name="electronic mixer details" >
     <i type="int" name="IMIX">     4</i>
     <i type="logical" name="MIXFIRST"> F  </i>
     <i type="int" name="MAXMIX">   -45</i>
     <i name="WC">    100.00000000</i>
     <i type="int" name="INIMIX">     1</i>
     <i type="int" name="MIXPRE">     1</i>
     <i type="int" name="MREMOVE">     5</i>
    </separator>
   </separator>
   <separator name="electronic dipolcorrection" >
    <i type="logical" name="LDIPOL"> F  </i>
    <i type="logical" name="LMONO"> F  </i>
    <i type="int" name="IDIPOL">     0</i>
    <i name="EPSILON">      1.00000000</i>
    <v name="DIPOL">   -100.00000000   -100.00000000   -100.00000000</v>
    <i name="EFIELD">      0.00000000</i>
   </separator>
  </separator>
  <separator name="grids" >
   <i type="int" name="NGX">   128</i>
   <i type="int" name="NGY">   128</i>
   <i type="int" name="NGZ">   150</i>
   <i type="int" name="NGXF">   256</i>
   <i type="int" name="NGYF">   256</i>
   <i type="int" name="NGZF">   300</i>
   <i type="logical" name="ADDGRID"> T  </i>
  </separator>
  <separator name="ionic" >
   <i type="int" name="NSW">     0</i>
   <i type="int" name="IBRION">    -1</i>
   <i type="int" name="MDALGO">     0</i>
   <i type="int" name="ISIF">     2</i>
   <i name="PSTRESS">      0.00000000</i>
   <i name="EDIFFG">     -0.00000001</i>
   <i type="int" name="NFREE">     0</i>
   <i name="POTIM">      0.50000000</i>
   <i name="SMASS">     -3.00000000</i>
   <i name="SCALEE">      1.00000000</i>
  </separator>
  <separator name="ionic md" >
   <i name="TEBEG">      0.00010000</i>
   <i name="TEEND">      0.00010000</i>
   <i type="int" name="NBLOCK">     1</i>
   <i type="int" name="KBLOCK">     1</i>
   <i type="int" name="NPACO">   256</i>
   <i name="APACO">     16.00000000</i>
  </separator>
  <separator name="symmetry" >
   <i type="int" name="ISYM">     2</i>
   <i name="SYMPREC">      0.00001000</i>
  </separator>
  <separator name="dos" >
   <i type="int" name="LORBIT">     0</i>
   <v name="RWIGS">     -1.00000000     -1.00000000     -1.00000000</v>
   <i type="int" name="NEDOS">   301</i>
   <i name="EMIN">     10.00000000</i>
   <i name="EMAX">    -10.00000000</i>
   <i name="EFERMI">      0.00000000</i>
  </separator>
  <separator name="writing" >
   <i type="int" name="NWRITE">     2</i>
   <i type="logical" name="LWAVE"> F  </i>
   <i type="logical" name="LDOWNSAMPLE"> F  </i>
   <i type="logical" name="LCHARG"> F  </i>
   <i type="logical" name="LPARD"> F  </i>
   <i type="logical" name="LVTOT"> F  </i>
   <i type="logical" name="LVHAR"> F  </i>
   <i type="logical" name="LELF"> F  </i>
   <i type="logical" name="LOPTICS"> F  </i>
   <v name="STM">      0.00000000      0.00000000      0.00000000      0.00000000      0.00000000      0.00000000      0.00000000</v>
  </separator>
  <separator name="performance" >
   <i type="int" name="NPAR">     4</i>
   <i type="int" name="NSIM">     4</i>
   <i type="int" name="NBLK">    -1</i>
   <i type="logical" name="LPLANE"> T  </i>
   <i type="logical" name="LSCALAPACK"> T  </i>
   <i type="logical" name="LSCAAWARE"> F  </i>
   <i type="logical" name="LSCALU"> F  </i>
   <i type="logical" name="LASYNC"> F  </i>
   <i type="logical" name="LORBITALREAL"> F  </i>
  </separator>
  <separator name="miscellaneous" >
   <i type="int" name="IDIOT">     3</i>
   <i type="int" name="ISPECIAL">     0</i>
   <i type="logical" name="LMUSIC"> F  </i>
   <v name="POMASS">     10.81100000     14.00100000     12.01100000</v>
   <v name="DARWINR">      0.00000000      0.00000000      0.00000000</v>
   <v name="DARWINV">      1.00000000      1.00000000      1.00000000</v>
   <i type="logical" name="LCORR"> T  </i>
  </separator>
  <i type="logical" name="GGA_COMPAT"> T  </i>
  <i type="logical" name="LBERRY"> F  </i>
  <i type="int" name="ICORELEVEL">     0</i>
  <i type="logical" name="LDAU"> F  </i>
  <i type="int" name="I_CONSTRAINED_M">     0</i>
  <separator name="electronic exchange-correlation" >
   <i type="string" name="GGA">--</i>
   <i type="int" name="VOSKOWN">     0</i>
   <i type="logical" name="LHFCALC"> F  </i>
   <i type="string" name="PRECFOCK"></i>
   <i type="logical" name="LSYMGRAD"> F  </i>
   <i type="logical" name="LHFONE"> F  </i>
   <i type="logical" name="LRHFCALC"> F  </i>
   <i type="logical" name="LTHOMAS"> F  </i>
   <i type="logical" name="LMODELHF"> F  </i>
   <i name="ENCUT4O">     -1.00000000</i>
   <i type="int" name="EXXOEP">     0</i>
   <i type="int" name="FOURORBIT">     0</i>
   <i name="AEXX">      0.00000000</i>
   <i name="HFALPHA">      0.00000000</i>
   <i name="MCALPHA">      0.00000000</i>
   <i name="ALDAX">      1.00000000</i>
   <i name="AGGAX">      1.00000000</i>
   <i name="ALDAC">      1.00000000</i>
   <i name="AGGAC">      1.00000000</i>
   <i type="int" name="NKREDX">     1</i>
   <i type="int" name="NKREDY">     1</i>
   <i type="int" name="NKREDZ">     1</i>
   <i type="logical" name="SHIFTRED"> F  </i>
   <i type="logical" name="ODDONLY"> F  </i>
   <i type="logical" name="EVENONLY"> F  </i>
   <i type="int" name="LMAXFOCK">     0</i>
   <i type="int" name="NMAXFOCKAE">     0</i>
   <i type="logical" name="LFOCKAEDFT"> F  </i>
   <i name="HFSCREEN">      0.00000000</i>
   <i name="HFSCREENC">      0.00000000</i>
   <i type="int" name="NBANDSGWLOW">     0</i>
  </separator>
  <separator name="vdW DFT" >
   <i type="logical" name="LUSE_VDW"> F  </i>
   <i name="Zab_VDW">     -0.84910000</i>
   <i name="PARAM1">      0.12340000</i>
   <i name="PARAM2">      1.00000000</i>
   <i name="PARAM3">      0.00000000</i>
  </separator>
  <separator name="model GW" >
   <i type="int" name="MODEL_GW">     0</i>
   <i name="MODEL_EPS0">     33.05532754</i>
   <i name="MODEL_ALPHA">      1.00000000</i>
  </separator>
  <separator name="linear response parameters" >
   <i type="logical" name="LEPSILON"> F  </i>
   <i type="logical" name="LRPA"> F  </i>
   <i type="logical" name="LNABLA"> F  </i>
   <i type="logical" name="LVEL"> F  </i>
   <i type="int" name="KINTER">     0</i>
   <i name="CSHIFT">      0.10000000</i>
   <i name="OMEGAMAX">     -1.00000000</i>
   <i name="DEG_THRESHOLD">      0.00200000</i>
   <i name="RTIME">     -0.10000000</i>
   <i name="WPLASMAI">      0.00000000</i>
   <v name="DFIELD">      0.00000000      0.00000000      0.00000000</v>
   <v name="WPLASMA">      0.00000000      0.00000000      0.00000000      0.00000000      0.00000000      0.00000000      0.00000000      0.00000000      0.00000000</v>
  </separator>
  <separator name="orbital magnetization" >
   <i type="logical" name="NUCIND"> F  </i>
   <v name="MAGPOS">      0.00000000      0.00000000      0.00000000</v>
   <i type="logical" name="LNICSALL"> T  </i>
   <i type="logical" name="ORBITALMAG"> F  </i>
   <i type="logical" name="LMAGBLOCH"> F  </i>
   <i type="logical" name="LCHIMAG"> F  </i>
   <i type="logical" name="LGAUGE"> T  </i>
   <i type="int" name="MAGATOM">     0</i>
   <v name="MAGDIPOL">      0.00000000      0.00000000      0.00000000</v>
   <v name="AVECCONST">      0.00000000      0.00000000      0.00000000</v>
  </separator>
  <separator name="response functions" >
   <i type="logical" name="LADDER"> F  </i>
   <i type="logical" name="LRPAFORCE"> F  </i>
   <i type="logical" name="LFXC"> F  </i>
   <i type="logical" name="LHARTREE"> T  </i>
   <i type="int" name="IBSE">     0</i>
   <v type="int" name="KPOINT">    -1     0     0     0</v>
   <i type="logical" name="LTCTE"> F  </i>
   <i type="logical" name="LTETE"> F  </i>
   <i type="logical" name="LTRIPLET"> F  </i>
   <i type="logical" name="LFXCEPS"> F  </i>
   <i type="logical" name="LFXHEG"> F  </i>
   <i type="int" name="NATURALO">     2</i>
   <i type="logical" name="L2ORDER"> F  </i>
   <i type="logical" name="LMP2LT"> F  </i>
   <i type="logical" name="LUSEW"> F  </i>
   <i name="ENCUTGW">     -2.00000000</i>
   <i name="ENCUTGWSOFT">     -2.00000000</i>
   <i name="ENCUTLF">     -1.00000000</i>
   <i type="int" name="LMAXMP2">    -1</i>
   <i name="SCISSOR">      0.00000000</i>
   <i type="int" name="NOMEGA">     0</i>
   <i type="int" name="NOMEGAR">     0</i>
   <i type="int" name="NBANDSGW">    -1</i>
   <i type="int" name="NBANDSO">    -1</i>
   <i type="int" name="NBANDSV">    -1</i>
   <i type="int" name="NELM">     1</i>
   <i type="int" name="NELMHF">     1</i>
   <i type="int" name="DIM">     3</i>
   <i type="int" name="ANTIRES">     0</i>
   <i name="OMEGAMAX">    -30.00000000</i>
   <i name="OMEGAMIN">    -30.00000000</i>
   <i name="OMEGATL">   -200.00000000</i>
   <i type="int" name="OMEGAGRID">   140</i>
   <i name="CSHIFT">     -0.10000000</i>
   <i type="logical" name="SELFENERGY"> F  </i>
   <i type="logical" name="LSPECTRAL"> F  </i>
   <i type="logical" name="LSPECTRALGW"> F  </i>
   <i type="logical" name="LSINGLES"> F  </i>
   <i type="logical" name="LFERMIGW"> F  </i>
   <i type="logical" name="ODDONLYGW"> F  </i>
   <i type="logical" name="EVENONLYGW"> F  </i>
   <i type="int" name="NKREDLFX">     1</i>
   <i type="int" name="NKREDLFY">     1</i>
   <i type="int" name="NKREDLFZ">     1</i>
   <i type="int" name="MAXMEM">  2800</i>
   <i type="int" name="TELESCOPE">     0</i>
   <i type="int" name="TAUPAR">     1</i>
   <i type="int" name="OMEGAPAR">    -1</i>
   <i name="LAMBDA">      1.00000000</i>
  </separator>
  <separator name="External order field" >
   <i name="OFIELD_KAPPA">      0.00000000</i>
   <v name="OFIELD_K">      0.00000000      0.00000000      0.00000000</v>
   <i name="OFIELD_Q6_NEAR">      0.00000000</i>
   <i name="OFIELD_Q6_FAR">      0.00000000</i>
   <i name="OFIELD_A">      0.00000000</i>
  </separator>
 </parameters>
 <atominfo>
  <atoms>      97 </atoms>
  <types>       3 </types>
  <array name="atoms" >
   <dimension dim="1">ion</dimension>
   <field type="string">element</field>
   <field type="int">atomtype</field>
   <set>
    <rc><c>B </c><c>   1</c></rc>
    <rc><c>B </c><c>   1</c></rc>
    <rc><c>B </c><c>   1</c></rc>
    <rc><c>B </c><c>   1</c></rc>
    <rc><c>B </c><c>   1</c></rc>
    <rc><c>B </c><c>   1</c></rc>
    <rc><c>B </c><c>   1</c></rc>
    <rc><c>B </c><c>   1</c></rc>
    <rc><c>B </c><c>   1</c></rc>
    <rc><c>B </c><c>   1</c></rc>
    <rc><c>B </c><c>   1</c></rc>
    <rc><c>B </c><c>   1</c></rc>
    <rc><c>B </c><c>   1</c></rc>
    <rc><c>B </c><c>   1</c></rc>
    <rc><c>B </c><c>   1</c></rc>
    <rc><c>B </c><c>   1</c></rc>
    <rc><c>B </c><c>   1</c></rc>
    <rc><c>B </c><c>   1</c></rc>
    <rc><c>B </c><c>   1</c></rc>
    <rc><c>B </c><c>   1</c></rc>
    <rc><c>B </c><c>   1</c></rc>
    <rc><c>B </c><c>   1</c></rc>
    <rc><c>B </c><c>   1</c></rc>
    <rc><c>B </c><c>   1</c></rc>
    <rc><c>B </c><c>   1</c></rc>
    <rc><c>B </c><c>   1</c></rc>
    <rc><c>B </c><c>   1</c></rc>
    <rc><c>B </c><c>   1</c></rc>
    <rc><c>B </c><c>   1</c></rc>
    <rc><c>B </c><c>   1</c></rc>
    <rc><c>B </c><c>   1</c></rc>
    <rc><c>B </c><c>   1</c></rc>
    <rc><c>B </c><c>   1</c></rc>
    <rc><c>B </c><c>   1</c></rc>
    <rc><c>B </c><c>   1</c></rc>
    <rc><c>B </c><c>   1</c></rc>
    <rc><c>B </c><c>   1</c></rc>
    <rc><c>B </c><c>   1</c></rc>
    <rc><c>B </c><c>   1</c></rc>
    <rc><c>B </c><c>   1</c></rc>
    <rc><c>B </c><c>   1</c></rc>
    <rc><c>B </c><c>   1</c></rc>
    <rc><c>B </c><c>   1</c></rc>
    <rc><c>B </c><c>   1</c></rc>
    <rc><c>B </c><c>   1</c></rc>
    <rc><c>B </c><c>   1</c></rc>
    <rc><c>B </c><c>   1</c></rc>
    <rc><c>B </c><c>   1</c></rc>
    <rc><c>N </c><c>   2</c></rc>
    <rc><c>N </c><c>   2</c></rc>
    <rc><c>N </c><c>   2</c></rc>
    <rc><c>N </c><c>   2</c></rc>
    <rc><c>N </c><c>   2</c></rc>
    <rc><c>N </c><c>   2</c></rc>
    <rc><c>N </c><c>   2</c></rc>
    <rc><c>N </c><c>   2</c></rc>
    <rc><c>N </c><c>   2</c></rc>
    <rc><c>N </c><c>   2</c></rc>
    <rc><c>N </c><c>   2</c></rc>
    <rc><c>N </c><c>   2</c></rc>
    <rc><c>N </c><c>   2</c></rc>
    <rc><c>N </c><c>   2</c></rc>
    <rc><c>N </c><c>   2</c></rc>
    <rc><c>N </c><c>   2</c></rc>
    <rc><c>N </c><c>   2</c></rc>
    <rc><c>N </c><c>   2</c></rc>
    <rc><c>N </c><c>   2</c></rc>
    <rc><c>N </c><c>   2</c></rc>
    <rc><c>N </c><c>   2</c></rc>
    <rc><c>N </c><c>   2</c></rc>
    <rc><c>N </c><c>   2</c></rc>
    <rc><c>N </c><c>   2</c></rc>
    <rc><c>N </c><c>   2</c></rc>
    <rc><c>N </c><c>   2</c></rc>
    <rc><c>N </c><c>   2</c></rc>
    <rc><c>N </c><c>   2</c></rc>
    <rc><c>N </c><c>   2</c></rc>
    <rc><c>N </c><c>   2</c></rc>
    <rc><c>N </c><c>   2</c></rc>
    <rc><c>N </c><c>   2</c></rc>
    <rc><c>N </c><c>   2</c></rc>
    <rc><c>N </c><c>   2</c></rc>
    <rc><c>N </c><c>   2</c></rc>
    <rc><c>N </c><c>   2</c></rc>
    <rc><c>N </c><c>   2</c></rc>
    <rc><c>N </c><c>   2</c></rc>
    <rc><c>N </c><c>   2</c></rc>
    <rc><c>N </c><c>   2</c></rc>
    <rc><c>N </c><c>   2</c></rc>
    <rc><c>N </c><c>   2</c></rc>
    <rc><c>N </c><c>   2</c></rc>
    <rc><c>N </c><c>   2</c></rc>
    <rc><c>N </c><c>   2</c></rc>
    <rc><c>N </c><c>   2</c></rc>
    <rc><c>N </c><c>   2</c></rc>
    <rc><c>N </c><c>   2</c></rc>
    <rc><c>C </c><c>   3</c></rc>
   </set>
  </array>
  <array name="atomtypes" >
   <dimension dim="1">type</dimension>
   <field type="int">atomspertype</field>
   <field type="string">element</field>
   <field>mass</field>
   <field>valence</field>
   <field type="string">pseudopotential</field>
   <set>
    <rc><c>  48</c><c>B </c><c>     10.81100000</c><c>      3.00000000</c><c>  PAW_PBE B 06Sep2000                   </c></rc>
    <rc><c>  48</c><c>N </c><c>     14.00100000</c><c>      5.00000000</c><c>  PAW_PBE N 08Apr2002                   </c></rc>
    <rc><c>   1</c><c>C </c><c>     12.01100000</c><c>      4.00000000</c><c>  PAW_PBE C 08Apr2002                   </c></rc>
   </set>
  </array>
 </atominfo>
 <structure name="initialpos" >
  <crystal>
   <varray name="basis" >
    <v>      17.59966831       0.00000000       0.00000000 </v>
    <v>      -8.79983416      15.24175986       0.00000000 </v>
    <v>       0.00000000       0.00000000      19.92151445 </v>
   </varray>
   <i name="volume">   5343.94461817 </i>
   <varray name="rec_basis" >
    <v>       0.05681925       0.03280461       0.00000000 </v>
    <v>       0.00000000       0.06560922       0.00000000 </v>
    <v>       0.00000000       0.00000000       0.05019699 </v>
   </varray>
  </crystal>
  <varray name="positions" >
   <v>       0.99943010       0.00005992       0.50000000 </v>
   <v>       0.14164706       0.99871895       0.50000000 </v>
   <v>       0.28492260       0.99841663       0.50000000 </v>
   <v>       0.42850047       0.99871895       0.50000000 </v>
   <v>       0.57205839       0.00005992       0.50000000 </v>
   <v>       0.71530655       0.00214292       0.50000000 </v>
   <v>       0.85826494       0.00214292       0.50000000 </v>
   <v>       0.00080792       0.14408264       0.50000000 </v>
   <v>       0.14259355       0.14244783       0.50000000 </v>
   <v>       0.28470221       0.14112972       0.50000000 </v>
   <v>       0.42785608       0.14112972       0.50000000 </v>
   <v>       0.57128286       0.14244783       0.50000000 </v>
   <v>       0.71470329       0.14408264       0.50000000 </v>
   <v>       0.85805263       0.14505288       0.50037619 </v>
   <v>       0.00095476       0.28713011       0.50000000 </v>
   <v>       0.14372552       0.28645370       0.50000000 </v>
   <v>       0.28540977       0.28469374       0.50000000 </v>
   <v>       0.42724431       0.28306005       0.50000000 </v>
   <v>       0.57071254       0.28469374       0.50000000 </v>
   <v>       0.71415674       0.28645370       0.50000000 </v>
   <v>       0.85760392       0.28713011       0.50000000 </v>
   <v>       0.00054479       0.42966101       0.50000000 </v>
   <v>       0.14422690       0.42957551       0.50000000 </v>
   <v>       0.28730213       0.42918005       0.50000000 </v>
   <v>       0.42797654       0.42569726       0.50000000 </v>
   <v>       0.56914930       0.42569726       0.50000000 </v>
   <v>       0.71330650       0.42918005       0.50000000 </v>
   <v>       0.85677719       0.42957551       0.50000000 </v>
   <v>       0.99928255       0.57181462       0.50000000 </v>
   <v>       0.14396064       0.57181462       0.50000000 </v>
   <v>       0.28862787       0.57181625       0.50000000 </v>
   <v>       0.43313209       0.57215564       0.50000000 </v>
   <v>       0.71045212       0.57215564       0.50000000 </v>
   <v>       0.85461695       0.57181625       0.50000000 </v>
   <v>       0.99707234       0.71370518       0.50000000 </v>
   <v>       0.14255519       0.71368182       0.50000000 </v>
   <v>       0.28806142       0.71370518       0.50000000 </v>
   <v>       0.43464191       0.71382540       0.50000000 </v>
   <v>       0.58510826       0.71626937       0.50000000 </v>
   <v>       0.70258968       0.71626937       0.50000000 </v>
   <v>       0.85061206       0.71382540       0.50000000 </v>
   <v>       0.99777175       0.85613493       0.50000000 </v>
   <v>       0.14160898       0.85591288       0.50000000 </v>
   <v>       0.28573247       0.85591288       0.50000000 </v>
   <v>       0.42979175       0.85613493       0.50000000 </v>
   <v>       0.57342541       0.85758690       0.50000000 </v>
   <v>       0.71640633       0.86138410       0.50000000 </v>
   <v>       0.85559006       0.85758690       0.50000000 </v>
   <v>       0.04754270       0.09547788       0.50000000 </v>
   <v>       0.18957833       0.09405657       0.50000000 </v>
   <v>       0.33254182       0.09365506       0.50000000 </v>
   <v>       0.47590681       0.09405657       0.50000000 </v>
   <v>       0.61936376       0.09547788       0.50000000 </v>
   <v>       0.76280004       0.09719274       0.50000000 </v>
   <v>       0.90582126       0.09719274       0.50000000 </v>
   <v>       0.04854983       0.23934281       0.50000000 </v>
   <v>       0.19048138       0.23782962       0.50000000 </v>
   <v>       0.33234878       0.23634667       0.50000000 </v>
   <v>       0.47542646       0.23634667       0.50000000 </v>
   <v>       0.61877681       0.23782962       0.50000000 </v>
   <v>       0.76222155       0.23934281       0.50000000 </v>
   <v>       0.90562797       0.23982737       0.50000000 </v>
   <v>       0.04871288       0.38232824       0.50000000 </v>
   <v>       0.19188940       0.38184213       0.50000000 </v>
   <v>       0.33352206       0.38013969       0.50000000 </v>
   <v>       0.47472270       0.37801683       0.50000000 </v>
   <v>       0.61804620       0.38013969       0.50000000 </v>
   <v>       0.76138130       0.38184213       0.50000000 </v>
   <v>       0.90504393       0.38232824       0.50000000 </v>
   <v>       0.04810654       0.52478452       0.50000000 </v>
   <v>       0.19263929       0.52476864       0.50000000 </v>
   <v>       0.33696521       0.52455433       0.50000000 </v>
   <v>       0.47833704       0.52146721       0.50000000 </v>
   <v>       0.61455874       0.52146721       0.50000000 </v>
   <v>       0.75901769       0.52455433       0.50000000 </v>
   <v>       0.90355792       0.52476864       0.50000000 </v>
   <v>       0.04642473       0.66685228       0.50000000 </v>
   <v>       0.19185612       0.66685228       0.50000000 </v>
   <v>       0.33777931       0.66688794       0.50000000 </v>
   <v>       0.48615700       0.66710760       0.50000000 </v>
   <v>       0.75237918       0.66710760       0.50000000 </v>
   <v>       0.90053720       0.66688794       0.50000000 </v>
   <v>       0.04582562       0.80879365       0.50000000 </v>
   <v>       0.19009580       0.80876303       0.50000000 </v>
   <v>       0.33439660       0.80879365       0.50000000 </v>
   <v>       0.47844872       0.80897069       0.50000000 </v>
   <v>       0.62209487       0.81129474       0.50000000 </v>
   <v>       0.76062845       0.81129474       0.50000000 </v>
   <v>       0.90195054       0.80897069       0.50000000 </v>
   <v>       0.04629157       0.95154386       0.50000000 </v>
   <v>       0.18948291       0.95113037       0.50000000 </v>
   <v>       0.33307603       0.95113037       0.50000000 </v>
   <v>       0.47668087       0.95154386       0.50000000 </v>
   <v>       0.62015751       0.95313740       0.50000000 </v>
   <v>       0.76355772       0.95568687       0.50000000 </v>
   <v>       0.90440847       0.95313740       0.50000000 </v>
   <v>       0.56830873       0.56518888       0.50000000 </v>
  </varray>
 </structure>
 <calculation>
  <scstep>
   <time name="dav">    2.37    2.39</time>
   <time name="total">    2.74    2.82</time>
   <energy>
    <i name="alphaZ">    156.50993408 </i>
    <i name="ewald">  58206.77324031 </i>
    <i name="hartreedc"> -70374.19762810 </i>
    <i name="XCdc">   1302.10865433 </i>
    <i name="pawpsdc">  12033.28670802 </i>
    <i name="pawaedc"> -12049.96799276 </i>
    <i name="eentropy">     -0.00000000 </i>
    <i name="bandstr">   -904.57850290 </i>
    <i name="atom">  16260.93880140 </i>
    <i name="e_fr_energy">   4630.87321437 </i>
    <i name="e_wo_entrp">   4630.87321437 </i>
    <i name="e_0_energy">   4630.87321437 </i>
   </energy>
  </scstep>
  <scstep>
   <time name="dav">    3.47    3.52</time>
   <time name="total">    3.47    3.52</time>
   <energy>
    <i name="e_fr_energy">    216.78764620 </i>
    <i name="e_wo_entrp">    216.78764620 </i>
    <i name="e_0_energy">    216.78764620 </i>
   </energy>
  </scstep>
  <scstep>
   <time name="dav">    2.46    2.51</time>
   <time name="total">    2.46    2.51</time>
   <energy>
    <i name="e_fr_energy">   -867.45094296 </i>
    <i name="e_wo_entrp">   -867.45094296 </i>
    <i name="e_0_energy">   -867.45094296 </i>
   </energy>
  </scstep>
  <scstep>
   <time name="dav">    2.48    2.52</time>
   <time name="total">    2.48    2.52</time>
   <energy>
    <i name="e_fr_energy">   -934.19323152 </i>
    <i name="e_wo_entrp">   -934.19323152 </i>
    <i name="e_0_energy">   -934.19323152 </i>
   </energy>
  </scstep>
  <scstep>
   <time name="dav">    2.50    2.55</time>
   <time name="total">    2.74    2.80</time>
   <energy>
    <i name="e_fr_energy">   -935.77609984 </i>
    <i name="e_wo_entrp">   -935.77609984 </i>
    <i name="e_0_energy">   -935.77609984 </i>
   </energy>
  </scstep>
  <scstep>
   <time name="dav">    2.33    2.35</time>
   <time name="total">    2.94    2.97</time>
   <energy>
    <i name="e_fr_energy">   -858.73285531 </i>
    <i name="e_wo_entrp">   -858.73285531 </i>
    <i name="e_0_energy">   -858.73285531 </i>
   </energy>
  </scstep>
  <scstep>
   <time name="dav">    2.35    2.37</time>
   <time name="total">    2.96    3.00</time>
   <energy>
    <i name="e_fr_energy">   -850.19367692 </i>
    <i name="e_wo_entrp">   -850.19367692 </i>
    <i name="e_0_energy">   -850.19367692 </i>
   </energy>
  </scstep>
  <scstep>
   <time name="dav">    2.28    2.31</time>
   <time name="total">    2.89    2.93</time>
   <energy>
    <i name="e_fr_energy">   -845.92627603 </i>
    <i name="e_wo_entrp">   -845.92627497 </i>
    <i name="e_0_energy">   -845.92627550 </i>
   </energy>
  </scstep>
  <scstep>
   <time name="dav">    2.30    2.32</time>
   <time name="total">    2.91    5.01</time>
   <energy>
    <i name="e_fr_energy">   -845.80120628 </i>
    <i name="e_wo_entrp">   -845.80120628 </i>
    <i name="e_0_energy">   -845.80120628 </i>
   </energy>
  </scstep>
  <scstep>
   <time name="dav">    2.38    2.40</time>
   <time name="total">    2.99    3.03</time>
   <energy>
    <i name="e_fr_energy">   -845.64093348 </i>
    <i name="e_wo_entrp">   -845.64093348 </i>
    <i name="e_0_energy">   -845.64093348 </i>
   </energy>
  </scstep>
  <scstep>
   <time name="dav">    2.26    2.28</time>
   <time name="total">    2.87    2.93</time>
   <energy>
    <i name="e_fr_energy">   -845.59133441 </i>
    <i name="e_wo_entrp">   -845.59133441 </i>
    <i name="e_0_energy">   -845.59133441 </i>
   </energy>
  </scstep>
  <scstep>
   <time name="dav">    2.26    2.28</time>
   <time name="total">    2.87    2.91</time>
   <energy>
    <i name="e_fr_energy">   -845.57752379 </i>
    <i name="e_wo_entrp">   -845.57752379 </i>
    <i name="e_0_energy">   -845.57752379 </i>
   </energy>
  </scstep>
  <scstep>
   <time name="dav">    2.22    2.25</time>
   <time name="total">    2.84    2.87</time>
   <energy>
    <i name="e_fr_energy">   -845.57645267 </i>
    <i name="e_wo_entrp">   -845.57645267 </i>
    <i name="e_0_energy">   -845.57645267 </i>
   </energy>
  </scstep>
  <scstep>
   <time name="dav">    2.24    2.26</time>
   <time name="total">    2.85    2.89</time>
   <energy>
    <i name="e_fr_energy">   -845.58203453 </i>
    <i name="e_wo_entrp">   -845.58203453 </i>
    <i name="e_0_energy">   -845.58203453 </i>
   </energy>
  </scstep>
  <scstep>
   <time name="dav">    2.23    2.25</time>
   <time name="total">    2.84    2.88</time>
   <energy>
    <i name="e_fr_energy">   -845.60566172 </i>
    <i name="e_wo_entrp">   -845.60566172 </i>
    <i name="e_0_energy">   -845.60566172 </i>
   </energy>
  </scstep>
  <scstep>
   <time name="dav">    2.19    2.21</time>
   <time name="total">    2.81    2.84</time>
   <energy>
    <i name="e_fr_energy">   -845.63083218 </i>
    <i name="e_wo_entrp">   -845.63083218 </i>
    <i name="e_0_energy">   -845.63083218 </i>
   </energy>
  </scstep>
  <scstep>
   <time name="dav">    2.24    2.26</time>
   <time name="total">    2.86    2.89</time>
   <energy>
    <i name="e_fr_energy">   -845.64462155 </i>
    <i name="e_wo_entrp">   -845.64462155 </i>
    <i name="e_0_energy">   -845.64462155 </i>
   </energy>
  </scstep>
  <scstep>
   <time name="dav">    2.27    2.29</time>
   <time name="total">    2.88    2.92</time>
   <energy>
    <i name="e_fr_energy">   -845.65025985 </i>
    <i name="e_wo_entrp">   -845.65025985 </i>
    <i name="e_0_energy">   -845.65025985 </i>
   </energy>
  </scstep>
  <scstep>
   <time name="dav">    2.23    2.25</time>
   <time name="total">    2.84    2.88</time>
   <energy>
    <i name="e_fr_energy">   -845.65240014 </i>
    <i name="e_wo_entrp">   -845.65240014 </i>
    <i name="e_0_energy">   -845.65240014 </i>
   </energy>
  </scstep>
  <scstep>
   <time name="dav">    2.25    2.27</time>
   <time name="total">    2.86    2.90</time>
   <energy>
    <i name="e_fr_energy">   -845.65312875 </i>
    <i name="e_wo_entrp">   -845.65312875 </i>
    <i name="e_0_energy">   -845.65312875 </i>
   </energy>
  </scstep>
  <scstep>
   <time name="dav">    2.27    2.29</time>
   <time name="total">    2.88    2.92</time>
   <energy>
    <i name="e_fr_energy">   -845.65343124 </i>
    <i name="e_wo_entrp">   -845.65343124 </i>
    <i name="e_0_energy">   -845.65343124 </i>
   </energy>
  </scstep>
  <scstep>
   <time name="dav">    2.23    2.25</time>
   <time name="total">    2.84    2.87</time>
   <energy>
    <i name="e_fr_energy">   -845.65362537 </i>
    <i name="e_wo_entrp">   -845.65362537 </i>
    <i name="e_0_energy">   -845.65362537 </i>
   </energy>
  </scstep>
  <scstep>
   <time name="dav">    2.21    2.22</time>
   <time name="total">    2.82    2.86</time>
   <energy>
    <i name="e_fr_energy">   -845.65373850 </i>
    <i name="e_wo_entrp">   -845.65373850 </i>
    <i name="e_0_energy">   -845.65373850 </i>
   </energy>
  </scstep>
  <scstep>
   <time name="dav">    2.20    2.23</time>
   <time name="total">    2.82    2.86</time>
   <energy>
    <i name="e_fr_energy">   -845.65381662 </i>
    <i name="e_wo_entrp">   -845.65381662 </i>
    <i name="e_0_energy">   -845.65381662 </i>
   </energy>
  </scstep>
  <scstep>
   <time name="dav">    2.32    2.34</time>
   <time name="total">    2.93    2.97</time>
   <energy>
    <i name="e_fr_energy">   -845.65384594 </i>
    <i name="e_wo_entrp">   -845.65384594 </i>
    <i name="e_0_energy">   -845.65384594 </i>
   </energy>
  </scstep>
  <scstep>
   <time name="dav">    2.21    2.22</time>
   <time name="total">    2.82    2.86</time>
   <energy>
    <i name="e_fr_energy">   -845.65386425 </i>
    <i name="e_wo_entrp">   -845.65386425 </i>
    <i name="e_0_energy">   -845.65386425 </i>
   </energy>
  </scstep>
  <scstep>
   <time name="dav">    2.25    2.27</time>
   <time name="total">    2.87    2.91</time>
   <energy>
    <i name="e_fr_energy">   -845.65387055 </i>
    <i name="e_wo_entrp">   -845.65387055 </i>
    <i name="e_0_energy">   -845.65387055 </i>
   </energy>
  </scstep>
  <scstep>
   <time name="dav">    2.00    2.02</time>
   <time name="total">    2.62    2.65</time>
   <energy>
    <i name="e_fr_energy">   -845.65387328 </i>
    <i name="e_wo_entrp">   -845.65387328 </i>
    <i name="e_0_energy">   -845.65387328 </i>
   </energy>
  </scstep>
  <scstep>
   <time name="dav">    1.93    1.95</time>
   <time name="total">    2.55    2.58</time>
   <energy>
    <i name="e_fr_energy">   -845.65387407 </i>
    <i name="e_wo_entrp">   -845.65387407 </i>
    <i name="e_0_energy">   -845.65387407 </i>
   </energy>
  </scstep>
  <scstep>
   <time name="dav">    1.69    1.70</time>
   <time name="total">    2.31    2.35</time>
   <energy>
    <i name="e_fr_energy">   -845.65387423 </i>
    <i name="e_wo_entrp">   -845.65387423 </i>
    <i name="e_0_energy">   -845.65387423 </i>
   </energy>
  </scstep>
  <scstep>
   <time name="dav">    1.67    1.68</time>
   <time name="total">    2.29    2.33</time>
   <energy>
    <i name="e_fr_energy">   -845.65387431 </i>
    <i name="e_wo_entrp">   -845.65387431 </i>
    <i name="e_0_energy">   -845.65387431 </i>
   </energy>
  </scstep>
  <scstep>
   <time name="dav">    1.80    1.82</time>
   <time name="total">    2.43    2.46</time>
   <energy>
    <i name="e_fr_energy">   -845.65387432 </i>
    <i name="e_wo_entrp">   -845.65387432 </i>
    <i name="e_0_energy">   -845.65387432 </i>
   </energy>
  </scstep>
  <scstep>
   <time name="dav">    1.74    1.76</time>
   <time name="total">    2.11    2.14</time>
   <energy>
    <i name="alphaZ">    156.50993408 </i>
    <i name="ewald">  58206.77324031 </i>
    <i name="hartreedc"> -72314.27550308 </i>
    <i name="XCdc">   1369.72378453 </i>
    <i name="pawpsdc">  44018.75877249 </i>
    <i name="pawaedc"> -44054.10062456 </i>
    <i name="eentropy">     -0.00000000 </i>
    <i name="bandstr">  -4489.98227949 </i>
    <i name="atom">  16260.93880140 </i>
    <i name="e_fr_energy">   -845.65387433 </i>
    <i name="e_wo_entrp">   -845.65387433 </i>
    <i name="e_0_energy">   -845.65387433 </i>
   </energy>
  </scstep>
  <structure>
   <crystal>
    <varray name="basis" >
     <v>      17.59966831       0.00000000       0.00000000 </v>
     <v>      -8.79983416      15.24175986       0.00000000 </v>
     <v>       0.00000000       0.00000000      19.92151445 </v>
    </varray>
    <i name="volume">   5343.94461817 </i>
    <varray name="rec_basis" >
     <v>       0.05681925       0.03280461       0.00000000 </v>
     <v>       0.00000000       0.06560922       0.00000000 </v>
     <v>       0.00000000       0.00000000       0.05019699 </v>
    </varray>
   </crystal>
   <varray name="positions" >
    <v>       0.99943010       0.00005992       0.50000000 </v>
    <v>       0.14164706       0.99871895       0.50000000 </v>
    <v>       0.28492260       0.99841663       0.50000000 </v>
    <v>       0.42850047       0.99871895       0.50000000 </v>
    <v>       0.57205839       0.00005992       0.50000000 </v>
    <v>       0.71530655       0.00214292       0.50000000 </v>
    <v>       0.85826494       0.00214292       0.50000000 </v>
    <v>       0.00080792       0.14408264       0.50000000 </v>
    <v>       0.14259355       0.14244783       0.50000000 </v>
    <v>       0.28470221       0.14112972       0.50000000 </v>
    <v>       0.42785608       0.14112972       0.50000000 </v>
    <v>       0.57128286       0.14244783       0.50000000 </v>
    <v>       0.71470329       0.14408264       0.50000000 </v>
    <v>       0.85805263       0.14505288       0.50037619 </v>
    <v>       0.00095476       0.28713011       0.50000000 </v>
    <v>       0.14372552       0.28645370       0.50000000 </v>
    <v>       0.28540977       0.28469374       0.50000000 </v>
    <v>       0.42724431       0.28306005       0.50000000 </v>
    <v>       0.57071254       0.28469374       0.50000000 </v>
    <v>       0.71415674       0.28645370       0.50000000 </v>
    <v>       0.85760392       0.28713011       0.50000000 </v>
    <v>       0.00054479       0.42966101       0.50000000 </v>
    <v>       0.14422690       0.42957551       0.50000000 </v>
    <v>       0.28730213       0.42918005       0.50000000 </v>
    <v>       0.42797654       0.42569726       0.50000000 </v>
    <v>       0.56914930       0.42569726       0.50000000 </v>
    <v>       0.71330650       0.42918005       0.50000000 </v>
    <v>       0.85677719       0.42957551       0.50000000 </v>
    <v>       0.99928255       0.57181462       0.50000000 </v>
    <v>       0.14396064       0.57181462       0.50000000 </v>
    <v>       0.28862787       0.57181625       0.50000000 </v>
    <v>       0.43313209       0.57215564       0.50000000 </v>
    <v>       0.71045212       0.57215564       0.50000000 </v>
    <v>       0.85461695       0.57181625       0.50000000 </v>
    <v>       0.99707234       0.71370518       0.50000000 </v>
    <v>       0.14255519       0.71368182       0.50000000 </v>
    <v>       0.28806142       0.71370518       0.50000000 </v>
    <v>       0.43464191       0.71382540       0.50000000 </v>
    <v>       0.58510826       0.71626937       0.50000000 </v>
    <v>       0.70258968       0.71626937       0.50000000 </v>
    <v>       0.85061206       0.71382540       0.50000000 </v>
    <v>       0.99777175       0.85613493       0.50000000 </v>
    <v>       0.14160898       0.85591288       0.50000000 </v>
    <v>       0.28573247       0.85591288       0.50000000 </v>
    <v>       0.42979175       0.85613493       0.50000000 </v>
    <v>       0.57342541       0.85758690       0.50000000 </v>
    <v>       0.71640633       0.86138410       0.50000000 </v>
    <v>       0.85559006       0.85758690       0.50000000 </v>
    <v>       0.04754270       0.09547788       0.50000000 </v>
    <v>       0.18957833       0.09405657       0.50000000 </v>
    <v>       0.33254182       0.09365506       0.50000000 </v>
    <v>       0.47590681       0.09405657       0.50000000 </v>
    <v>       0.61936376       0.09547788       0.50000000 </v>
    <v>       0.76280004       0.09719274       0.50000000 </v>
    <v>       0.90582126       0.09719274       0.50000000 </v>
    <v>       0.04854983       0.23934281       0.50000000 </v>
    <v>       0.19048138       0.23782962       0.50000000 </v>
    <v>       0.33234878       0.23634667       0.50000000 </v>
    <v>       0.47542646       0.23634667       0.50000000 </v>
    <v>       0.61877681       0.23782962       0.50000000 </v>
    <v>       0.76222155       0.23934281       0.50000000 </v>
    <v>       0.90562797       0.23982737       0.50000000 </v>
    <v>       0.04871288       0.38232824       0.50000000 </v>
    <v>       0.19188940       0.38184213       0.50000000 </v>
    <v>       0.33352206       0.38013969       0.50000000 </v>
    <v>       0.47472270       0.37801683       0.50000000 </v>
    <v>       0.61804620       0.38013969       0.50000000 </v>
    <v>       0.76138130       0.38184213       0.50000000 </v>
    <v>       0.90504393       0.38232824       0.50000000 </v>
    <v>       0.04810654       0.52478452       0.50000000 </v>
    <v>       0.19263929       0.52476864       0.50000000 </v>
    <v>       0.33696521       0.52455433       0.50000000 </v>
    <v>       0.47833704       0.52146721       0.50000000 </v>
    <v>       0.61455874       0.52146721       0.50000000 </v>
    <v>       0.75901769       0.52455433       0.50000000 </v>
    <v>       0.90355792       0.52476864       0.50000000 </v>
    <v>       0.04642473       0.66685228       0.50000000 </v>
    <v>       0.19185612       0.66685228       0.50000000 </v>
    <v>       0.33777931       0.66688794       0.50000000 </v>
    <v>       0.48615700       0.66710760       0.50000000 </v>
    <v>       0.75237918       0.66710760       0.50000000 </v>
    <v>       0.90053720       0.66688794       0.50000000 </v>
    <v>       0.04582562       0.80879365       0.50000000 </v>
    <v>       0.19009580       0.80876303       0.50000000 </v>
    <v>       0.33439660       0.80879365       0.50000000 </v>
    <v>       0.47844872       0.80897069       0.50000000 </v>
    <v>       0.62209487       0.81129474       0.50000000 </v>
    <v>       0.76062845       0.81129474       0.50000000 </v>
    <v>       0.90195054       0.80897069       0.50000000 </v>
    <v>       0.04629157       0.95154386       0.50000000 </v>
    <v>       0.18948291       0.95113037       0.50000000 </v>
    <v>       0.33307603       0.95113037       0.50000000 </v>
    <v>       0.47668087       0.95154386       0.50000000 </v>
    <v>       0.62015751       0.95313740       0.50000000 </v>
    <v>       0.76355772       0.95568687       0.50000000 </v>
    <v>       0.90440847       0.95313740       0.50000000 </v>
    <v>       0.56830873       0.56518888       0.50000000 </v>
   </varray>
  </structure>
  <varray name="forces" >
   <v>      -0.04340789      -0.02461124       0.00007384 </v>
   <v>      -0.02382151      -0.00981612      -0.00001337 </v>
   <v>      -0.00082570      -0.01304635      -0.00001561 </v>
   <v>       0.02176244      -0.01008455      -0.00001351 </v>
   <v>       0.04003513      -0.02717283       0.00007225 </v>
   <v>      -0.01665067      -0.04890842       0.00030709 </v>
   <v>       0.02474089      -0.02152802       0.00032689 </v>
   <v>      -0.02596006      -0.04732829       0.00037911 </v>
   <v>      -0.03062424      -0.02931584      -0.00048425 </v>
   <v>      -0.00903229      -0.03444052       0.00000900 </v>
   <v>       0.00695430      -0.03411412       0.00000881 </v>
   <v>       0.02671537      -0.02752829      -0.00048118 </v>
   <v>      -0.00302640      -0.04126194       0.00028532 </v>
   <v>       0.16184831      -0.32981602      -0.10663535 </v>
   <v>       0.01933503      -0.02246692       0.00020556 </v>
   <v>       0.00565880      -0.04507362       0.00007649 </v>
   <v>      -0.03146315      -0.00358826      -0.00001495 </v>
   <v>      -0.00085023      -0.09411287      -0.00001487 </v>
   <v>       0.02931909      -0.00249024      -0.00001514 </v>
   <v>      -0.00918514      -0.04259466       0.00007737 </v>
   <v>      -0.01146468      -0.00720478       0.00013116 </v>
   <v>       0.00039394       0.01153483       0.00008199 </v>
   <v>      -0.02032546       0.00011501      -0.00047974 </v>
   <v>       0.05852705      -0.13812794      -0.00001284 </v>
   <v>      -0.11207962      -0.20002144      -0.00001787 </v>
   <v>       0.11105198      -0.19964380      -0.00001787 </v>
   <v>      -0.05938361      -0.13712295      -0.00001302 </v>
   <v>       0.02186641       0.00147044      -0.00047833 </v>
   <v>       0.01604445       0.03086428      -0.00001505 </v>
   <v>      -0.01572754       0.03055771      -0.00001497 </v>
   <v>      -0.08420899       0.12884805       0.00000809 </v>
   <v>       0.05103619       0.39741345      -0.00001577 </v>
   <v>      -0.05136284       0.39825857      -0.00001581 </v>
   <v>       0.08426120       0.12974715       0.00000809 </v>
   <v>      -0.00927813       0.02381168      -0.00001535 </v>
   <v>      -0.00014108       0.02886753      -0.00001269 </v>
   <v>       0.00903596       0.02299821      -0.00001536 </v>
   <v>       0.08740080       0.04336495       0.00000680 </v>
   <v>       1.36463762       1.25189707      -0.00002815 </v>
   <v>      -1.36458283       1.25293813      -0.00002819 </v>
   <v>      -0.08730650       0.04487594       0.00000694 </v>
   <v>      -0.04786496      -0.00604752      -0.00001495 </v>
   <v>      -0.01361855      -0.00365462      -0.00001260 </v>
   <v>       0.01263338      -0.00407005      -0.00001259 </v>
   <v>       0.04708982      -0.00787437      -0.00001507 </v>
   <v>       0.15279943       0.03559391      -0.00046390 </v>
   <v>       0.00024917      -0.24812287       0.00007569 </v>
   <v>      -0.15114252       0.04041136      -0.00046540 </v>
   <v>       0.03549611       0.03312313      -0.00214839 </v>
   <v>       0.01280746       0.02392736       0.00014943 </v>
   <v>       0.00100840       0.02769707       0.00000504 </v>
   <v>      -0.01021124       0.02398362       0.00014908 </v>
   <v>      -0.02901546       0.03507084      -0.00213665 </v>
   <v>      -0.03900461       0.07380433       0.03797320 </v>
   <v>      -0.07879253       0.11086826       0.03845315 </v>
   <v>       0.00915855       0.04804792       0.00155301 </v>
   <v>      -0.00836897       0.00603247       0.00004549 </v>
   <v>       0.01652389       0.03653111       0.00000984 </v>
   <v>      -0.01472817       0.03619728       0.00001003 </v>
   <v>       0.01087264       0.00439340       0.00004528 </v>
   <v>      -0.00760291       0.03881921       0.00156149 </v>
   <v>      -0.02662273       0.15863463       0.03726534 </v>
   <v>       0.00565692       0.01916095      -0.00207660 </v>
   <v>       0.04571315       0.06068893       0.00004700 </v>
   <v>      -0.02208236      -0.19918562       0.00001795 </v>
   <v>       0.00048658       0.11053301       0.00001413 </v>
   <v>       0.02300364      -0.20014739       0.00001804 </v>
   <v>      -0.04532406       0.05816450       0.00004657 </v>
   <v>      -0.00948277       0.01984396      -0.00207453 </v>
   <v>      -0.00015489       0.00577499       0.00017410 </v>
   <v>       0.02408200      -0.00865255       0.00014344 </v>
   <v>       0.18929745       0.11225472       0.00001088 </v>
   <v>       1.02294695      -1.56372416      -0.00000926 </v>
   <v>      -1.02275027      -1.56409826      -0.00000915 </v>
   <v>      -0.18904817       0.11119015       0.00001083 </v>
   <v>      -0.02448638      -0.00938304       0.00014354 </v>
   <v>       0.01040336      -0.03491190       0.00000147 </v>
   <v>      -0.01004687      -0.03450581       0.00000080 </v>
   <v>      -0.05966359      -0.06717824       0.00000637 </v>
   <v>      -0.27136451       0.00845519       0.00000738 </v>
   <v>       0.27122611       0.00744678       0.00000711 </v>
   <v>       0.05989445      -0.06814273       0.00000632 </v>
   <v>       0.03752787      -0.01439883      -0.00000104 </v>
   <v>       0.00055301      -0.01211570       0.00001725 </v>
   <v>      -0.03643941      -0.01348715      -0.00000091 </v>
   <v>      -0.08605374      -0.01344095       0.00014146 </v>
   <v>      -0.88788519       0.24228109       0.00005753 </v>
   <v>       0.88572259       0.24058178       0.00005768 </v>
   <v>       0.08643532      -0.01561382       0.00014187 </v>
   <v>       0.03452752       0.01556116       0.00018948 </v>
   <v>       0.01129784      -0.00411069      -0.00000151 </v>
   <v>      -0.00950456      -0.00374849      -0.00000134 </v>
   <v>      -0.03192380       0.01733063       0.00018887 </v>
   <v>      -0.11207797       0.12265952      -0.00206477 </v>
   <v>      -0.00725939       0.01029336       0.00158466 </v>
   <v>       0.11524605       0.11434718      -0.00207440 </v>
   <v>      -0.00005546      -0.11923200       0.00005670 </v>
  </varray>
  <varray name="stress" >
   <v>     -10.62445433       0.01095397       0.00036365 </v>
   <v>       0.01095397       3.05664497      -0.00073999 </v>
   <v>       0.00036365      -0.00073999      -0.42579875 </v>
  </varray>
  <energy>
   <i name="e_fr_energy">   -845.65387433 </i>
   <i name="e_wo_entrp">   -845.65387433 </i>
   <i name="e_0_energy">     -0.00000000 </i>
  </energy>
  <time name="totalsc">   98.83  102.29</time>
  <eigenvalues>
   <array>
    <dimension dim="1">band</dimension>
    <dimension dim="2">kpoint</dimension>
    <dimension dim="3">spin</dimension>
    <field>eigene</field>
    <field>occ</field>
    <set>
     <set comment="spin 1">
      <set comment="kpoint 1">
       <r>  -22.5410    1.0000 </r>
       <r>  -22.0205    1.0000 </r>
       <r>  -21.7739    1.0000 </r>
       <r>  -21.7465    1.0000 </r>
       <r>  -21.6966    1.0000 </r>
       <r>  -21.6534    1.0000 </r>
       <r>  -21.6149    1.0000 </r>
       <r>  -21.2387    1.0000 </r>
       <r>  -21.0697    1.0000 </r>
       <r>  -21.0036    1.0000 </r>
       <r>  -20.9689    1.0000 </r>
       <r>  -20.9268    1.0000 </r>
       <r>  -20.8762    1.0000 </r>
       <r>  -20.7471    1.0000 </r>
       <r>  -20.7008    1.0000 </r>
       <r>  -20.6631    1.0000 </r>
       <r>  -20.5958    1.0000 </r>
       <r>  -20.5677    1.0000 </r>
       <r>  -20.4267    1.0000 </r>
       <r>  -19.9816    1.0000 </r>
       <r>  -19.9250    1.0000 </r>
       <r>  -19.8068    1.0000 </r>
       <r>  -19.7614    1.0000 </r>
       <r>  -19.7366    1.0000 </r>
       <r>  -19.7349    1.0000 </r>
       <r>  -19.7063    1.0000 </r>
       <r>  -19.6986    1.0000 </r>
       <r>  -19.6461    1.0000 </r>
       <r>  -19.6394    1.0000 </r>
       <r>  -19.6278    1.0000 </r>
       <r>  -19.4927    1.0000 </r>
       <r>  -19.4074    1.0000 </r>
       <r>  -19.3680    1.0000 </r>
       <r>  -19.3556    1.0000 </r>
       <r>  -19.2877    1.0000 </r>
       <r>  -19.2383    1.0000 </r>
       <r>  -19.1079    1.0000 </r>
       <r>  -18.9999    1.0000 </r>
       <r>  -18.9344    1.0000 </r>
       <r>  -18.8731    1.0000 </r>
       <r>  -18.8525    1.0000 </r>
       <r>  -18.8358    1.0000 </r>
       <r>  -18.7683    1.0000 </r>
       <r>  -18.7493    1.0000 </r>
       <r>  -18.7296    1.0000 </r>
       <r>  -18.7139    1.0000 </r>
       <r>  -18.6928    1.0000 </r>
       <r>  -18.4424    1.0000 </r>
       <r>  -14.1408    1.0000 </r>
       <r>  -13.1823    1.0000 </r>
       <r>  -13.1570    1.0000 </r>
       <r>  -13.1102    1.0000 </r>
       <r>  -13.1045    1.0000 </r>
       <r>  -13.0825    1.0000 </r>
       <r>  -13.0158    1.0000 </r>
       <r>  -12.9590    1.0000 </r>
       <r>  -12.9505    1.0000 </r>
       <r>  -12.9339    1.0000 </r>
       <r>  -12.8041    1.0000 </r>
       <r>  -12.7666    1.0000 </r>
       <r>  -12.6012    1.0000 </r>
       <r>  -12.5048    1.0000 </r>
       <r>  -12.4862    1.0000 </r>
       <r>  -12.3778    1.0000 </r>
       <r>  -12.3101    1.0000 </r>
       <r>  -12.2952    1.0000 </r>
       <r>  -12.1784    1.0000 </r>
       <r>  -11.9010    1.0000 </r>
       <r>  -11.8855    1.0000 </r>
       <r>  -11.7671    1.0000 </r>
       <r>  -11.7640    1.0000 </r>
       <r>  -11.7495    1.0000 </r>
       <r>  -11.7404    1.0000 </r>
       <r>  -11.6945    1.0000 </r>
       <r>  -11.6568    1.0000 </r>
       <r>  -11.6322    1.0000 </r>
       <r>  -11.5417    1.0000 </r>
       <r>  -11.4217    1.0000 </r>
       <r>  -11.2001    1.0000 </r>
       <r>  -11.1245    1.0000 </r>
       <r>  -11.0843    1.0000 </r>
       <r>  -11.0583    1.0000 </r>
       <r>  -10.9663    1.0000 </r>
       <r>  -10.9115    1.0000 </r>
       <r>  -10.6832    1.0000 </r>
       <r>  -10.4617    1.0000 </r>
       <r>  -10.4323    1.0000 </r>
       <r>  -10.3501    1.0000 </r>
       <r>  -10.2551    1.0000 </r>
       <r>  -10.2062    1.0000 </r>
       <r>   -9.8894    1.0000 </r>
       <r>   -9.7696    1.0000 </r>
       <r>   -9.7645    1.0000 </r>
       <r>   -9.7249    1.0000 </r>
       <r>   -9.6751    1.0000 </r>
       <r>   -9.5893    1.0000 </r>
       <r>   -9.5428    1.0000 </r>
       <r>   -9.4989    1.0000 </r>
       <r>   -9.4646    1.0000 </r>
       <r>   -9.3519    1.0000 </r>
       <r>   -9.3459    1.0000 </r>
       <r>   -9.2869    1.0000 </r>
       <r>   -9.2609    1.0000 </r>
       <r>   -9.2581    1.0000 </r>
       <r>   -9.2493    1.0000 </r>
       <r>   -9.2377    1.0000 </r>
       <r>   -9.2240    1.0000 </r>
       <r>   -9.2228    1.0000 </r>
       <r>   -9.2080    1.0000 </r>
       <r>   -9.2022    1.0000 </r>
       <r>   -9.2012    1.0000 </r>
       <r>   -9.1977    1.0000 </r>
       <r>   -9.1550    1.0000 </r>
       <r>   -9.1346    1.0000 </r>
       <r>   -9.1105    1.0000 </r>
       <r>   -9.1101    1.0000 </r>
       <r>   -9.1013    1.0000 </r>
       <r>   -9.0453    1.0000 </r>
       <r>   -8.9920    1.0000 </r>
       <r>   -8.8450    1.0000 </r>
       <r>   -8.7946    1.0000 </r>
       <r>   -8.6530    1.0000 </r>
       <r>   -8.5053    1.0000 </r>
       <r>   -8.4828    1.0000 </r>
       <r>   -8.4410    1.0000 </r>
       <r>   -8.3293    1.0000 </r>
       <r>   -8.2229    1.0000 </r>
       <r>   -8.2018    1.0000 </r>
       <r>   -8.1969    1.0000 </r>
       <r>   -8.1705    1.0000 </r>
       <r>   -8.1497    1.0000 </r>
       <r>   -8.1232    1.0000 </r>
       <r>   -8.0390    1.0000 </r>
       <r>   -7.9697    1.0000 </r>
       <r>   -7.9515    1.0000 </r>
       <r>   -7.8720    1.0000 </r>
       <r>   -7.8502    1.0000 </r>
       <r>   -7.8467    1.0000 </r>
       <r>   -7.8046    1.0000 </r>
       <r>   -7.8013    1.0000 </r>
       <r>   -7.7991    1.0000 </r>
       <r>   -7.7365    1.0000 </r>
       <r>   -7.7332    1.0000 </r>
       <r>   -7.7138    1.0000 </r>
       <r>   -7.6789    1.0000 </r>
       <r>   -7.6708    1.0000 </r>
       <r>   -7.6617    1.0000 </r>
       <r>   -7.6375    1.0000 </r>
       <r>   -7.6291    1.0000 </r>
       <r>   -7.4406    1.0000 </r>
       <r>   -7.4373    1.0000 </r>
       <r>   -7.4263    1.0000 </r>
       <r>   -7.3861    1.0000 </r>
       <r>   -7.3571    1.0000 </r>
       <r>   -7.2757    1.0000 </r>
       <r>   -6.8303    1.0000 </r>
       <r>   -6.7588    1.0000 </r>
       <r>   -6.6214    1.0000 </r>
       <r>   -6.6065    1.0000 </r>
       <r>   -6.5436    1.0000 </r>
       <r>   -6.5382    1.0000 </r>
       <r>   -6.5040    1.0000 </r>
       <r>   -6.4910    1.0000 </r>
       <r>   -6.4562    1.0000 </r>
       <r>   -6.4549    1.0000 </r>
       <r>   -6.4406    1.0000 </r>
       <r>   -6.4389    1.0000 </r>
       <r>   -6.4095    1.0000 </r>
       <r>   -6.4043    1.0000 </r>
       <r>   -6.3610    1.0000 </r>
       <r>   -6.3454    1.0000 </r>
       <r>   -6.3169    1.0000 </r>
       <r>   -6.1095    1.0000 </r>
       <r>   -5.9668    1.0000 </r>
       <r>   -5.9275    1.0000 </r>
       <r>   -5.8882    1.0000 </r>
       <r>   -5.8797    1.0000 </r>
       <r>   -5.8624    1.0000 </r>
       <r>   -5.7798    1.0000 </r>
       <r>   -5.7781    1.0000 </r>
       <r>   -5.5276    1.0000 </r>
       <r>   -5.2207    1.0000 </r>
       <r>   -5.1991    1.0000 </r>
       <r>   -5.1966    1.0000 </r>
       <r>   -5.1401    1.0000 </r>
       <r>   -5.1321    1.0000 </r>
       <r>   -5.1031    1.0000 </r>
       <r>   -5.0006    1.0000 </r>
       <r>   -4.9442    1.0000 </r>
       <r>   -4.9192    1.0000 </r>
       <r>   -4.9058    1.0000 </r>
       <r>   -4.8997    1.0000 </r>
       <r>   -4.7295    1.0000 </r>
       <r>   -1.3151    1.0000 </r>
       <r>   -1.2020    0.0000 </r>
       <r>    0.0597    0.0000 </r>
       <r>    0.2046    0.0000 </r>
       <r>    0.2390    0.0000 </r>
       <r>    0.2597    0.0000 </r>
       <r>    0.2613    0.0000 </r>
       <r>    0.3034    0.0000 </r>
       <r>    0.3038    0.0000 </r>
       <r>    0.3756    0.0000 </r>
       <r>    0.3935    0.0000 </r>
       <r>    0.4330    0.0000 </r>
       <r>    0.4814    0.0000 </r>
       <r>    0.5267    0.0000 </r>
       <r>    0.6122    0.0000 </r>
       <r>    0.7470    0.0000 </r>
       <r>    0.7471    0.0000 </r>
       <r>    0.7775    0.0000 </r>
       <r>    0.8056    0.0000 </r>
       <r>    0.8113    0.0000 </r>
       <r>    0.8280    0.0000 </r>
       <r>    0.8381    0.0000 </r>
       <r>    0.8592    0.0000 </r>
       <r>    0.8720    0.0000 </r>
       <r>    0.9809    0.0000 </r>
       <r>    1.0202    0.0000 </r>
       <r>    1.0586    0.0000 </r>
       <r>    1.1181    0.0000 </r>
       <r>    1.4953    0.0000 </r>
       <r>    1.6731    0.0000 </r>
       <r>    1.6968    0.0000 </r>
       <r>    1.7060    0.0000 </r>
       <r>    1.7236    0.0000 </r>
       <r>    1.7404    0.0000 </r>
       <r>    1.7447    0.0000 </r>
       <r>    1.8041    0.0000 </r>
       <r>    1.8076    0.0000 </r>
       <r>    1.8461    0.0000 </r>
       <r>    1.8472    0.0000 </r>
       <r>    1.8792    0.0000 </r>
       <r>    1.8807    0.0000 </r>
       <r>    1.9064    0.0000 </r>
       <r>    1.9084    0.0000 </r>
       <r>    1.9293    0.0000 </r>
       <r>    1.9844    0.0000 </r>
       <r>    2.0299    0.0000 </r>
       <r>    2.1031    0.0000 </r>
       <r>    2.1077    0.0000 </r>
       <r>    2.1287    0.0000 </r>
       <r>    2.1347    0.0000 </r>
       <r>    2.1352    0.0000 </r>
      </set>
     </set>
    </set>
   </array>
  </eigenvalues>
  <separator name="orbital magnetization" >
   <v name="MAGDIPOLOUT">      0.00000000      0.00000000      0.00000000</v>
  </separator>
  <dos>
   <i name="efermi">     -1.25678683 </i>
   <total>
    <array>
     <dimension dim="1">gridpoints</dimension>
     <dimension dim="2">spin</dimension>
     <field>energy</field>
     <field>total</field>
     <field>integrated</field>
     <set>
      <set comment="spin 1">
       <r>   -23.7748     0.0000     0.0000 </r>
       <r>   -23.6843     0.0000     0.0000 </r>
       <r>   -23.5938     0.0000     0.0000 </r>
       <r>   -23.5034     0.0000     0.0000 </r>
       <r>   -23.4129     0.0000     0.0000 </r>
       <r>   -23.3224     0.0000     0.0000 </r>
       <r>   -23.2319     0.0000     0.0000 </r>
       <r>   -23.1414     0.0000     0.0000 </r>
       <r>   -23.0510     0.0000     0.0000 </r>
       <r>   -22.9605     0.0000     0.0000 </r>
       <r>   -22.8700     0.0000     0.0000 </r>
       <r>   -22.7795     0.0000     0.0000 </r>
       <r>   -22.6891     0.0000     0.0000 </r>
       <r>   -22.5986     0.0000     0.0000 </r>
       <r>   -22.5081    22.1045     2.0000 </r>
       <r>   -22.4176     0.0000     2.0000 </r>
       <r>   -22.3271     0.0000     2.0000 </r>
       <r>   -22.2367     0.0000     2.0000 </r>
       <r>   -22.1462     0.0000     2.0000 </r>
       <r>   -22.0557     0.0000     2.0000 </r>
       <r>   -21.9652    22.1045     4.0000 </r>
       <r>   -21.8747     0.0000     4.0000 </r>
       <r>   -21.7843     1.5809     4.1430 </r>
       <r>   -21.6938    36.5996     9.3115 </r>
       <r>   -21.6033    43.0891    13.8987 </r>
       <r>   -21.5128     0.0000    14.0000 </r>
       <r>   -21.4223     0.0000    14.0000 </r>
       <r>   -21.3319     0.0000    14.0000 </r>
       <r>   -21.2414     7.8220    14.7077 </r>
       <r>   -21.1509     0.0000    16.0000 </r>
       <r>   -21.0604    20.0304    17.8123 </r>
       <r>   -20.9699    31.8998    20.8863 </r>
       <r>   -20.8795    29.2673    24.6481 </r>
       <r>   -20.7890     0.0000    26.0000 </r>
       <r>   -20.6985    35.9538    29.2531 </r>
       <r>   -20.6080    23.0226    32.0831 </r>
       <r>   -20.5176    43.2909    36.0000 </r>
       <r>   -20.4271    10.5662    36.9560 </r>
       <r>   -20.3366     0.0000    38.0000 </r>
       <r>   -20.2461     0.0000    38.0000 </r>
       <r>   -20.1556     0.0000    38.0000 </r>
       <r>   -20.0652     0.0000    38.0000 </r>
       <r>   -19.9747    18.4621    39.6704 </r>
       <r>   -19.8842    22.1045    42.0000 </r>
       <r>   -19.7937    21.3924    43.9356 </r>
       <r>   -19.7032    86.6536    51.8404 </r>
       <r>   -19.6128    65.9424    59.9664 </r>
       <r>   -19.5223     0.0003    60.0000 </r>
       <r>   -19.4318    22.1104    62.0006 </r>
       <r>   -19.3413    65.8242    67.9563 </r>
       <r>   -19.2508    22.9425    70.0758 </r>
       <r>   -19.1604    21.2666    72.0000 </r>
       <r>   -19.0699    22.1045    74.0000 </r>
       <r>   -18.9794    22.0636    75.9963 </r>
       <r>   -18.8889    22.3853    78.0254 </r>
       <r>   -18.7984    66.0330    84.0000 </r>
       <r>   -18.7080    84.3117    91.6285 </r>
       <r>   -18.6175    21.7532    94.0000 </r>
       <r>   -18.5270     0.0000    94.0000 </r>
       <r>   -18.4365    17.6465    95.5966 </r>
       <r>   -18.3461     0.0000    96.0000 </r>
       <r>   -18.2556     0.0000    96.0000 </r>
       <r>   -18.1651     0.0000    96.0000 </r>
       <r>   -18.0746     0.0000    96.0000 </r>
       <r>   -17.9841     0.0000    96.0000 </r>
       <r>   -17.8937     0.0000    96.0000 </r>
       <r>   -17.8032     0.0000    96.0000 </r>
       <r>   -17.7127     0.0000    96.0000 </r>
       <r>   -17.6222     0.0000    96.0000 </r>
       <r>   -17.5317     0.0000    96.0000 </r>
       <r>   -17.4413     0.0000    96.0000 </r>
       <r>   -17.3508     0.0000    96.0000 </r>
       <r>   -17.2603     0.0000    96.0000 </r>
       <r>   -17.1698     0.0000    96.0000 </r>
       <r>   -17.0793     0.0000    96.0000 </r>
       <r>   -16.9889     0.0000    96.0000 </r>
       <r>   -16.8984     0.0000    96.0000 </r>
       <r>   -16.8079     0.0000    96.0000 </r>
       <r>   -16.7174     0.0000    96.0000 </r>
       <r>   -16.6269     0.0000    96.0000 </r>
       <r>   -16.5365     0.0000    96.0000 </r>
       <r>   -16.4460     0.0000    96.0000 </r>
       <r>   -16.3555     0.0000    96.0000 </r>
       <r>   -16.2650     0.0000    96.0000 </r>
       <r>   -16.1745     0.0000    96.0000 </r>
       <r>   -16.0841     0.0000    96.0000 </r>
       <r>   -15.9936     0.0000    96.0000 </r>
       <r>   -15.9031     0.0000    96.0000 </r>
       <r>   -15.8126     0.0000    96.0000 </r>
       <r>   -15.7222     0.0000    96.0000 </r>
       <r>   -15.6317     0.0000    96.0000 </r>
       <r>   -15.5412     0.0000    96.0000 </r>
       <r>   -15.4507     0.0000    96.0000 </r>
       <r>   -15.3602     0.0000    96.0000 </r>
       <r>   -15.2698     0.0000    96.0000 </r>
       <r>   -15.1793     0.0000    96.0000 </r>
       <r>   -15.0888     0.0000    96.0000 </r>
       <r>   -14.9983     0.0000    96.0000 </r>
       <r>   -14.9078     0.0000    96.0000 </r>
       <r>   -14.8174     0.0000    96.0000 </r>
       <r>   -14.7269     0.0000    96.0000 </r>
       <r>   -14.6364     0.0000    96.0000 </r>
       <r>   -14.5459     0.0000    96.0000 </r>
       <r>   -14.4554     0.0000    96.0000 </r>
       <r>   -14.3650     0.0000    96.0000 </r>
       <r>   -14.2745     0.0000    96.0000 </r>
       <r>   -14.1840     0.0000    96.0000 </r>
       <r>   -14.0935    22.1045    98.0000 </r>
       <r>   -14.0030     0.0000    98.0000 </r>
       <r>   -13.9126     0.0000    98.0000 </r>
       <r>   -13.8221     0.0000    98.0000 </r>
       <r>   -13.7316     0.0000    98.0000 </r>
       <r>   -13.6411     0.0000    98.0000 </r>
       <r>   -13.5507     0.0000    98.0000 </r>
       <r>   -13.4602     0.0000    98.0000 </r>
       <r>   -13.3697     0.0000    98.0000 </r>
       <r>   -13.2792     0.0000    98.0000 </r>
       <r>   -13.1887     4.0207    98.3638 </r>
       <r>   -13.0983    61.3829   105.5539 </r>
       <r>   -13.0078    41.1173   109.7464 </r>
       <r>   -12.9173    66.1049   115.9811 </r>
       <r>   -12.8268     0.0146   116.0013 </r>
       <r>   -12.7363    44.1942   120.0000 </r>
       <r>   -12.6459     0.0000   120.0000 </r>
       <r>   -12.5554    22.1045   122.0000 </r>
       <r>   -12.4649    44.1797   125.9973 </r>
       <r>   -12.3744    15.1510   127.3709 </r>
       <r>   -12.2839    42.9907   131.8898 </r>
       <r>   -12.1935     0.3624   132.0328 </r>
       <r>   -12.1030    21.7421   134.0000 </r>
       <r>   -12.0125     0.0000   134.0000 </r>
       <r>   -11.9220     0.0330   134.0030 </r>
       <r>   -11.8315    44.1760   138.0000 </r>
       <r>   -11.7411    73.8988   144.6863 </r>
       <r>   -11.6506    40.0889   149.6272 </r>
       <r>   -11.5601    22.1016   152.0091 </r>
       <r>   -11.4696    22.0039   154.0000 </r>
       <r>   -11.3792    22.1045   156.0000 </r>
       <r>   -11.2887     0.0000   156.0000 </r>
       <r>   -11.1982    13.3853   157.2111 </r>
       <r>   -11.1077    21.9189   159.9832 </r>
       <r>   -11.0172    44.1987   164.0000 </r>
       <r>   -10.9268    22.4504   166.0313 </r>
       <r>   -10.8363    21.7586   168.0000 </r>
       <r>   -10.7458     0.0000   168.0000 </r>
       <r>   -10.6553    22.1036   169.9999 </r>
       <r>   -10.5648     0.0000   170.0000 </r>
       <r>   -10.4744     0.8049   170.0728 </r>
       <r>   -10.3839    43.4042   174.0000 </r>
       <r>   -10.2934    22.1045   176.0000 </r>
       <r>   -10.2029    37.1426   179.3606 </r>
       <r>   -10.1124     0.0000   180.0000 </r>
       <r>   -10.0220     0.0000   180.0000 </r>
       <r>    -9.9315     0.0000   180.0000 </r>
       <r>    -9.8410    22.1045   182.0000 </r>
       <r>    -9.7505    43.6050   185.9453 </r>
       <r>    -9.6600    43.8358   189.9665 </r>
       <r>    -9.5696    22.0470   191.9948 </r>
       <r>    -9.4791    44.5983   196.0354 </r>
       <r>    -9.3886    21.6584   198.0000 </r>
       <r>    -9.2981    45.4407   202.1114 </r>
       <r>    -9.2076   175.0085   217.9461 </r>
       <r>    -9.1172    51.6674   228.6748 </r>
       <r>    -9.0267    43.8391   235.9914 </r>
       <r>    -8.9362    22.1045   238.0000 </r>
       <r>    -8.8457    10.1449   238.9179 </r>
       <r>    -8.7553    22.1045   242.0000 </r>
       <r>    -8.6648     1.0448   242.0945 </r>
       <r>    -8.5743    21.0598   244.0000 </r>
       <r>    -8.4838    31.8278   246.8798 </r>
       <r>    -8.3933    22.1045   250.0000 </r>
       <r>    -8.3029    22.1025   251.9998 </r>
       <r>    -8.2124    22.3779   254.0247 </r>
       <r>    -8.1219    99.2842   263.1455 </r>
       <r>    -8.0314    18.9641   265.7159 </r>
       <r>    -7.9409    42.7203   269.8653 </r>
       <r>    -7.8505    39.3857   273.5636 </r>
       <r>    -7.7600    66.3254   282.0011 </r>
       <r>    -7.6695   102.0767   291.2369 </r>
       <r>    -7.5790    44.2090   298.0000 </r>
       <r>    -7.4885     0.0000   298.0000 </r>
       <r>    -7.3981    67.3176   304.0908 </r>
       <r>    -7.3076    43.2044   308.0000 </r>
       <r>    -7.2171    22.1045   310.0000 </r>
       <r>    -7.1266     0.0000   310.0000 </r>
       <r>    -7.0361     0.0000   310.0000 </r>
       <r>    -6.9457     0.0000   310.0000 </r>
       <r>    -6.8552     0.0049   310.0004 </r>
       <r>    -6.7647    26.5843   312.4058 </r>
       <r>    -6.6742     0.0000   314.0000 </r>
       <r>    -6.5838    44.1948   317.9987 </r>
       <r>    -6.4933    73.1964   324.6228 </r>
       <r>    -6.4028   119.7344   336.8335 </r>
       <r>    -6.3123    60.6048   343.4835 </r>
       <r>    -6.2218     0.0000   344.0000 </r>
       <r>    -6.1314     0.0220   344.0020 </r>
       <r>    -6.0409    22.0826   346.0000 </r>
       <r>    -5.9504    21.8892   347.9805 </r>
       <r>    -5.8599    80.3415   355.2704 </r>
       <r>    -5.7694    40.1718   359.6347 </r>
       <r>    -5.6790     0.0000   360.0000 </r>
       <r>    -5.5885     0.0000   360.0000 </r>
       <r>    -5.4980    22.1042   362.0000 </r>
       <r>    -5.4075     0.0000   362.0000 </r>
       <r>    -5.3170     0.0000   362.0000 </r>
       <r>    -5.2266     4.5397   362.4108 </r>
       <r>    -5.1361    66.3187   370.0006 </r>
       <r>    -5.0456    22.1045   374.0000 </r>
       <r>    -4.9551    23.4647   376.1231 </r>
       <r>    -4.8646    87.0579   384.0000 </r>
       <r>    -4.7742     0.0000   384.0000 </r>
       <r>    -4.6837    22.1045   386.0000 </r>
       <r>    -4.5932     0.0000   386.0000 </r>
       <r>    -4.5027     0.0000   386.0000 </r>
       <r>    -4.4122     0.0000   386.0000 </r>
       <r>    -4.3218     0.0000   386.0000 </r>
       <r>    -4.2313     0.0000   386.0000 </r>
       <r>    -4.1408     0.0000   386.0000 </r>
       <r>    -4.0503     0.0000   386.0000 </r>
       <r>    -3.9599     0.0000   386.0000 </r>
       <r>    -3.8694     0.0000   386.0000 </r>
       <r>    -3.7789     0.0000   386.0000 </r>
       <r>    -3.6884     0.0000   386.0000 </r>
       <r>    -3.5979     0.0000   386.0000 </r>
       <r>    -3.5075     0.0000   386.0000 </r>
       <r>    -3.4170     0.0000   386.0000 </r>
       <r>    -3.3265     0.0000   386.0000 </r>
       <r>    -3.2360     0.0000   386.0000 </r>
       <r>    -3.1455     0.0000   386.0000 </r>
       <r>    -3.0551     0.0000   386.0000 </r>
       <r>    -2.9646     0.0000   386.0000 </r>
       <r>    -2.8741     0.0000   386.0000 </r>
       <r>    -2.7836     0.0000   386.0000 </r>
       <r>    -2.6931     0.0000   386.0000 </r>
       <r>    -2.6027     0.0000   386.0000 </r>
       <r>    -2.5122     0.0000   386.0000 </r>
       <r>    -2.4217     0.0000   386.0000 </r>
       <r>    -2.3312     0.0000   386.0000 </r>
       <r>    -2.2407     0.0000   386.0000 </r>
       <r>    -2.1503     0.0000   386.0000 </r>
       <r>    -2.0598     0.0000   386.0000 </r>
       <r>    -1.9693     0.0000   386.0000 </r>
       <r>    -1.8788     0.0000   386.0000 </r>
       <r>    -1.7884     0.0000   386.0000 </r>
       <r>    -1.6979     0.0000   386.0000 </r>
       <r>    -1.6074     0.0000   386.0000 </r>
       <r>    -1.5169     0.0000   386.0000 </r>
       <r>    -1.4264     0.0000   386.0000 </r>
       <r>    -1.3360     0.0346   386.0031 </r>
       <r>    -1.2455    22.0699   388.0000 </r>
       <r>    -1.1550    22.1045   390.0000 </r>
       <r>    -1.0645     0.0000   390.0000 </r>
       <r>    -0.9740     0.0000   390.0000 </r>
       <r>    -0.8836     0.0000   390.0000 </r>
       <r>    -0.7931     0.0000   390.0000 </r>
       <r>    -0.7026     0.0000   390.0000 </r>
       <r>    -0.6121     0.0000   390.0000 </r>
       <r>    -0.5216     0.0000   390.0000 </r>
       <r>    -0.4312     0.0000   390.0000 </r>
       <r>    -0.3407     0.0000   390.0000 </r>
       <r>    -0.2502     0.0000   390.0000 </r>
       <r>    -0.1597     0.0000   390.0000 </r>
       <r>    -0.0692     0.0000   390.0000 </r>
       <r>     0.0212     0.0000   390.0000 </r>
       <r>     0.1117    22.1045   392.0000 </r>
       <r>     0.2022     8.0566   392.7290 </r>
       <r>     0.2927    69.0116   400.2441 </r>
       <r>     0.3831    62.0253   405.8561 </r>
       <r>     0.4736    25.0829   410.2695 </r>
       <r>     0.5641    22.1045   414.0000 </r>
       <r>     0.6546    22.1045   416.0000 </r>
       <r>     0.7451    17.1604   417.5527 </r>
       <r>     0.8355    93.2213   428.4346 </r>
       <r>     0.9260    44.1999   434.0000 </r>
       <r>     1.0165    28.7443   436.6008 </r>
       <r>     1.1070    23.3960   440.1169 </r>
       <r>     1.1975    20.8130   442.0000 </r>
       <r>     1.2879     0.0000   442.0000 </r>
       <r>     1.3784     0.0000   442.0000 </r>
       <r>     1.4689     0.0021   442.0002 </r>
       <r>     1.5594    22.1024   444.0000 </r>
       <r>     1.6499     0.0113   444.0010 </r>
       <r>     1.7403   105.1243   453.5126 </r>
       <r>     1.8308    44.7698   460.0507 </r>
       <r>     1.9213   133.7469   472.1532 </r>
       <r>     2.0118    22.2198   476.0104 </r>
       <r>     2.1023    36.9062   479.3498 </r>
       <r>     2.1927    66.3114   488.0000 </r>
       <r>     2.2832     0.0000   488.0000 </r>
       <r>     2.3737     0.0000   488.0000 </r>
       <r>     2.4642     0.0000   488.0000 </r>
       <r>     2.5547     0.0000   488.0000 </r>
       <r>     2.6451     0.0000   488.0000 </r>
       <r>     2.7356     0.0000   488.0000 </r>
       <r>     2.8261     0.0000   488.0000 </r>
       <r>     2.9166     0.0000   488.0000 </r>
       <r>     3.0070     0.0000   488.0000 </r>
       <r>     3.0975     0.0000   488.0000 </r>
       <r>     3.1880     0.0000   488.0000 </r>
       <r>     3.2785     0.0000   488.0000 </r>
       <r>     3.3690     0.0000   488.0000 </r>
      </set>
     </set>
    </array>
   </total>
  </dos>
 </calculation>
 <structure name="finalpos" >
  <crystal>
   <varray name="basis" >
    <v>      17.59966831       0.00000000       0.00000000 </v>
    <v>      -8.79983416      15.24175986       0.00000000 </v>
    <v>       0.00000000       0.00000000      19.92151445 </v>
   </varray>
   <i name="volume">   5343.94461817 </i>
   <varray name="rec_basis" >
    <v>       0.05681925       0.03280461       0.00000000 </v>
    <v>       0.00000000       0.06560922       0.00000000 </v>
    <v>       0.00000000       0.00000000       0.05019699 </v>
   </varray>
  </crystal>
  <varray name="positions" >
   <v>       0.99943010       0.00005992       0.50000000 </v>
   <v>       0.14164706       0.99871895       0.50000000 </v>
   <v>       0.28492260       0.99841663       0.50000000 </v>
   <v>       0.42850047       0.99871895       0.50000000 </v>
   <v>       0.57205839       0.00005992       0.50000000 </v>
   <v>       0.71530655       0.00214292       0.50000000 </v>
   <v>       0.85826494       0.00214292       0.50000000 </v>
   <v>       0.00080792       0.14408264       0.50000000 </v>
   <v>       0.14259355       0.14244783       0.50000000 </v>
   <v>       0.28470221       0.14112972       0.50000000 </v>
   <v>       0.42785608       0.14112972       0.50000000 </v>
   <v>       0.57128286       0.14244783       0.50000000 </v>
   <v>       0.71470329       0.14408264       0.50000000 </v>
   <v>       0.85805263       0.14505288       0.50037619 </v>
   <v>       0.00095476       0.28713011       0.50000000 </v>
   <v>       0.14372552       0.28645370       0.50000000 </v>
   <v>       0.28540977       0.28469374       0.50000000 </v>
   <v>       0.42724431       0.28306005       0.50000000 </v>
   <v>       0.57071254       0.28469374       0.50000000 </v>
   <v>       0.71415674       0.28645370       0.50000000 </v>
   <v>       0.85760392       0.28713011       0.50000000 </v>
   <v>       0.00054479       0.42966101       0.50000000 </v>
   <v>       0.14422690       0.42957551       0.50000000 </v>
   <v>       0.28730213       0.42918005       0.50000000 </v>
   <v>       0.42797654       0.42569726       0.50000000 </v>
   <v>       0.56914930       0.42569726       0.50000000 </v>
   <v>       0.71330650       0.42918005       0.50000000 </v>
   <v>       0.85677719       0.42957551       0.50000000 </v>
   <v>       0.99928255       0.57181462       0.50000000 </v>
   <v>       0.14396064       0.57181462       0.50000000 </v>
   <v>       0.28862787       0.57181625       0.50000000 </v>
   <v>       0.43313209       0.57215564       0.50000000 </v>
   <v>       0.71045212       0.57215564       0.50000000 </v>
   <v>       0.85461695       0.57181625       0.50000000 </v>
   <v>       0.99707234       0.71370518       0.50000000 </v>
   <v>       0.14255519       0.71368182       0.50000000 </v>
   <v>       0.28806142       0.71370518       0.50000000 </v>
   <v>       0.43464191       0.71382540       0.50000000 </v>
   <v>       0.58510826       0.71626937       0.50000000 </v>
   <v>       0.70258968       0.71626937       0.50000000 </v>
   <v>       0.85061206       0.71382540       0.50000000 </v>
   <v>       0.99777175       0.85613493       0.50000000 </v>
   <v>       0.14160898       0.85591288       0.50000000 </v>
   <v>       0.28573247       0.85591288       0.50000000 </v>
   <v>       0.42979175       0.85613493       0.50000000 </v>
   <v>       0.57342541       0.85758690       0.50000000 </v>
   <v>       0.71640633       0.86138410       0.50000000 </v>
   <v>       0.85559006       0.85758690       0.50000000 </v>
   <v>       0.04754270       0.09547788       0.50000000 </v>
   <v>       0.18957833       0.09405657       0.50000000 </v>
   <v>       0.33254182       0.09365506       0.50000000 </v>
   <v>       0.47590681       0.09405657       0.50000000 </v>
   <v>       0.61936376       0.09547788       0.50000000 </v>
   <v>       0.76280004       0.09719274       0.50000000 </v>
   <v>       0.90582126       0.09719274       0.50000000 </v>
   <v>       0.04854983       0.23934281       0.50000000 </v>
   <v>       0.19048138       0.23782962       0.50000000 </v>
   <v>       0.33234878       0.23634667       0.50000000 </v>
   <v>       0.47542646       0.23634667       0.50000000 </v>
   <v>       0.61877681       0.23782962       0.50000000 </v>
   <v>       0.76222155       0.23934281       0.50000000 </v>
   <v>       0.90562797       0.23982737       0.50000000 </v>
   <v>       0.04871288       0.38232824       0.50000000 </v>
   <v>       0.19188940       0.38184213       0.50000000 </v>
   <v>       0.33352206       0.38013969       0.50000000 </v>
   <v>       0.47472270       0.37801683       0.50000000 </v>
   <v>       0.61804620       0.38013969       0.50000000 </v>
   <v>       0.76138130       0.38184213       0.50000000 </v>
   <v>       0.90504393       0.38232824       0.50000000 </v>
   <v>       0.04810654       0.52478452       0.50000000 </v>
   <v>       0.19263929       0.52476864       0.50000000 </v>
   <v>       0.33696521       0.52455433       0.50000000 </v>
   <v>       0.47833704       0.52146721       0.50000000 </v>
   <v>       0.61455874       0.52146721       0.50000000 </v>
   <v>       0.75901769       0.52455433       0.50000000 </v>
   <v>       0.90355792       0.52476864       0.50000000 </v>
   <v>       0.04642473       0.66685228       0.50000000 </v>
   <v>       0.19185612       0.66685228       0.50000000 </v>
   <v>       0.33777931       0.66688794       0.50000000 </v>
   <v>       0.48615700       0.66710760       0.50000000 </v>
   <v>       0.75237918       0.66710760       0.50000000 </v>
   <v>       0.90053720       0.66688794       0.50000000 </v>
   <v>       0.04582562       0.80879365       0.50000000 </v>
   <v>       0.19009580       0.80876303       0.50000000 </v>
   <v>       0.33439660       0.80879365       0.50000000 </v>
   <v>       0.47844872       0.80897069       0.50000000 </v>
   <v>       0.62209487       0.81129474       0.50000000 </v>
   <v>       0.76062845       0.81129474       0.50000000 </v>
   <v>       0.90195054       0.80897069       0.50000000 </v>
   <v>       0.04629157       0.95154386       0.50000000 </v>
   <v>       0.18948291       0.95113037       0.50000000 </v>
   <v>       0.33307603       0.95113037       0.50000000 </v>
   <v>       0.47668087       0.95154386       0.50000000 </v>
   <v>       0.62015751       0.95313740       0.50000000 </v>
   <v>       0.76355772       0.95568687       0.50000000 </v>
   <v>       0.90440847       0.95313740       0.50000000 </v>
   <v>       0.56830873       0.56518888       0.50000000 </v>
  </varray>
 </structure>
</modeling>
