<?xml version="1.0" encoding="ISO-8859-1"?>
<modeling>
 <generator>
  <i name="program" type="string">vasp </i>
  <i name="version" type="string">5.4.4.18Apr17-6-g9f103f2a35  </i>
  <i name="subversion" type="string">(build Oct 18 2020 22:16:12) gamma-only         parallel </i>
  <i name="platform" type="string">UA-vaughan-2020a </i>
  <i name="date" type="string">2023 03 21 </i>
  <i name="time" type="string">22:16:17 </i>
 </generator>
 <incar>
  <i type="string" name="PREC">accurate</i>
  <i type="int" name="IALGO">    38</i>
  <i type="logical" name="ADDGRID"> T  </i>
  <i type="int" name="NELMIN">     5</i>
  <i type="int" name="IBRION">    -1</i>
  <i name="EDIFF">      0.00000001</i>
  <i name="EDIFFG">     -0.00000001</i>
  <i type="int" name="NSW">     0</i>
  <i type="int" name="ISIF">     2</i>
  <i name="ENCUT">    500.00000000</i>
  <i type="logical" name="LREAL"> F  </i>
  <i type="int" name="ISMEAR">     0</i>
  <i name="SIGMA">      0.01000000</i>
  <i type="logical" name="LWAVE"> F  </i>
  <i type="logical" name="LCHARG"> F  </i>
  <v type="int" name="KPOINT_BSE">    -1     0     0     0</v>
 </incar>
 <structure name="primitive_cell" >
  <crystal>
   <varray name="basis" >
    <v>      17.59966831       0.00000000       0.00000000 </v>
    <v>      -8.79983416      15.24175986       0.00000000 </v>
    <v>       0.00000000       0.00000000      19.92151445 </v>
   </varray>
   <i name="volume">   5343.94461817 </i>
   <varray name="rec_basis" >
    <v>       0.05681925       0.03280461       0.00000000 </v>
    <v>       0.00000000       0.06560922       0.00000000 </v>
    <v>       0.00000000       0.00000000       0.05019699 </v>
   </varray>
  </crystal>
  <varray name="positions" >
   <v>      -0.00056990       0.00005992      -0.50000000 </v>
   <v>      -0.09559153      -0.04686260      -0.50000000 </v>
   <v>       0.04629157      -0.04845614      -0.50000000 </v>
   <v>       0.04754270       0.09547788      -0.50000000 </v>
   <v>      -0.14173506       0.00214292      -0.50000000 </v>
   <v>       0.14259355       0.14244783      -0.50000000 </v>
   <v>       0.14164706      -0.00128105      -0.50000000 </v>
   <v>      -0.00222825      -0.14386507      -0.50000000 </v>
   <v>      -0.14440994      -0.14241310      -0.50000000 </v>
   <v>       0.00080792       0.14408264      -0.50000000 </v>
   <v>       0.18957833       0.09405657      -0.50000000 </v>
   <v>      -0.09417874       0.09719274      -0.50000000 </v>
   <v>      -0.09804946      -0.19102931      -0.50000000 </v>
   <v>      -0.23644228      -0.04431313      -0.50000000 </v>
   <v>      -0.23937155      -0.18870526      -0.50000000 </v>
   <v>       0.19048138       0.23782962      -0.50000000 </v>
   <v>       0.04582562      -0.19120635      -0.50000000 </v>
   <v>       0.18948291      -0.04886963      -0.50000000 </v>
   <v>       0.04854983       0.23934281      -0.50000000 </v>
   <v>      -0.28359367      -0.13861590      -0.50000000 </v>
   <v>       0.28470221       0.14112972      -0.50000000 </v>
   <v>       0.14160898      -0.14351893      -0.50000000 </v>
   <v>      -0.14194737       0.14467669      -0.50000000 </v>
   <v>      -0.14938794      -0.28617460      -0.50000000 </v>
   <v>       0.14372552       0.28645370      -0.50000000 </v>
   <v>      -0.28469345       0.00214292      -0.50000000 </v>
   <v>      -0.00292766      -0.28629482      -0.50000000 </v>
   <v>       0.28540977       0.28469374      -0.50000000 </v>
   <v>       0.00095476       0.28713011      -0.50000000 </v>
   <v>       0.28492260      -0.00158337      -0.50000000 </v>
   <v>      -0.29741032      -0.28373063      -0.50000000 </v>
   <v>      -0.09946280      -0.33311206      -0.50000000 </v>
   <v>       0.33234878       0.23634667      -0.50000000 </v>
   <v>      -0.23719996       0.09719274      -0.50000000 </v>
   <v>       0.33254182       0.09365506      -0.50000000 </v>
   <v>      -0.09437203       0.23982737      -0.50000000 </v>
   <v>      -0.24762082      -0.33289240      -0.50000000 </v>
   <v>      -0.37790513      -0.18870526      -0.50000000 </v>
   <v>       0.19188940       0.38184213      -0.50000000 </v>
   <v>       0.19009580      -0.19123697      -0.50000000 </v>
   <v>      -0.37984249      -0.04686260      -0.50000000 </v>
   <v>       0.04642473      -0.33314772      -0.50000000 </v>
   <v>       0.33352206       0.38013969      -0.50000000 </v>
   <v>       0.04871288       0.38232824      -0.50000000 </v>
   <v>       0.33307603      -0.04886963      -0.50000000 </v>
   <v>      -0.41489174      -0.28373063      -0.50000000 </v>
   <v>      -0.42657459      -0.14241310      -0.50000000 </v>
   <v>       0.42724431       0.28306005      -0.50000000 </v>
   <v>      -0.14538305      -0.42818375      -0.50000000 </v>
   <v>      -0.28529671       0.14408264      -0.50000000 </v>
   <v>      -0.28954788      -0.42784436      -0.50000000 </v>
   <v>       0.42785608       0.14112972      -0.50000000 </v>
   <v>      -0.14239608       0.28713011      -0.50000000 </v>
   <v>       0.14422690       0.42957551      -0.50000000 </v>
   <v>       0.28730213       0.42918005      -0.50000000 </v>
   <v>       0.14255519      -0.28631818      -0.50000000 </v>
   <v>       0.28573247      -0.14408712      -0.50000000 </v>
   <v>      -0.24098231      -0.47544567      -0.50000000 </v>
   <v>       0.47542646       0.23634667      -0.50000000 </v>
   <v>      -0.23777845       0.23934281      -0.50000000 </v>
   <v>       0.42797654       0.42569726      -0.50000000 </v>
   <v>      -0.42794161       0.00005992      -0.50000000 </v>
   <v>      -0.00071745      -0.42818538      -0.50000000 </v>
   <v>       0.00054479       0.42966101      -0.50000000 </v>
   <v>       0.42850047      -0.00128105      -0.50000000 </v>
   <v>      -0.43169127      -0.43481112      -0.50000000 </v>
   <v>       0.47472270       0.37801683      -0.50000000 </v>
   <v>      -0.09644208      -0.47523136      -0.50000000 </v>
   <v>      -0.38063624       0.09547788      -0.50000000 </v>
   <v>       0.47590681       0.09405657      -0.50000000 </v>
   <v>      -0.09495607       0.38232824      -0.50000000 </v>
   <v>      -0.38544126      -0.47853279      -0.50000000 </v>
   <v>       0.48615700      -0.33289240      -0.50000000 </v>
   <v>       0.47844872      -0.19102931      -0.50000000 </v>
   <v>       0.19263929      -0.47523136      -0.50000000 </v>
   <v>       0.33696521      -0.47544567      -0.50000000 </v>
   <v>       0.19185612      -0.33314772      -0.50000000 </v>
   <v>       0.33439660      -0.19120635      -0.50000000 </v>
   <v>       0.43464191      -0.28617460      -0.50000000 </v>
   <v>      -0.28669350       0.42918005      -0.50000000 </v>
   <v>      -0.42928746       0.28469374      -0.50000000 </v>
   <v>      -0.28584326       0.28645370      -0.50000000 </v>
   <v>       0.28862787      -0.42818375      -0.50000000 </v>
   <v>       0.28806142      -0.28629482      -0.50000000 </v>
   <v>       0.47668087      -0.04845614      -0.50000000 </v>
   <v>       0.47833704      -0.47853279      -0.50000000 </v>
   <v>       0.04810654      -0.47521548      -0.50000000 </v>
   <v>       0.43313209      -0.42784436      -0.50000000 </v>
   <v>       0.42979175      -0.14386507      -0.50000000 </v>
   <v>      -0.43085070       0.42569726      -0.50000000 </v>
   <v>      -0.14322281       0.42957551      -0.50000000 </v>
   <v>      -0.42871714       0.14244783      -0.50000000 </v>
   <v>       0.14396064      -0.42818538      -0.50000000 </v>
   <v>      -0.23861870       0.38184213      -0.50000000 </v>
   <v>      -0.38122319       0.23782962      -0.50000000 </v>
   <v>      -0.38195380       0.38013969      -0.50000000 </v>
   <v>       0.33777931      -0.33311206      -0.50000000 </v>
  </varray>
 </structure>
 <varray name="primitive_index" >
  <v type="int" >        1 </v>
  <v type="int" >       96 </v>
  <v type="int" >       90 </v>
  <v type="int" >       49 </v>
  <v type="int" >        7 </v>
  <v type="int" >        9 </v>
  <v type="int" >        2 </v>
  <v type="int" >       42 </v>
  <v type="int" >       48 </v>
  <v type="int" >        8 </v>
  <v type="int" >       50 </v>
  <v type="int" >       55 </v>
  <v type="int" >       89 </v>
  <v type="int" >       95 </v>
  <v type="int" >       88 </v>
  <v type="int" >       57 </v>
  <v type="int" >       83 </v>
  <v type="int" >       91 </v>
  <v type="int" >       56 </v>
  <v type="int" >       47 </v>
  <v type="int" >       10 </v>
  <v type="int" >       43 </v>
  <v type="int" >       14 </v>
  <v type="int" >       41 </v>
  <v type="int" >       16 </v>
  <v type="int" >        6 </v>
  <v type="int" >       35 </v>
  <v type="int" >       17 </v>
  <v type="int" >       15 </v>
  <v type="int" >        3 </v>
  <v type="int" >       40 </v>
  <v type="int" >       82 </v>
  <v type="int" >       58 </v>
  <v type="int" >       54 </v>
  <v type="int" >       51 </v>
  <v type="int" >       62 </v>
  <v type="int" >       81 </v>
  <v type="int" >       87 </v>
  <v type="int" >       64 </v>
  <v type="int" >       84 </v>
  <v type="int" >       94 </v>
  <v type="int" >       77 </v>
  <v type="int" >       65 </v>
  <v type="int" >       63 </v>
  <v type="int" >       92 </v>
  <v type="int" >       39 </v>
  <v type="int" >       46 </v>
  <v type="int" >       18 </v>
  <v type="int" >       34 </v>
  <v type="int" >       13 </v>
  <v type="int" >       33 </v>
  <v type="int" >       11 </v>
  <v type="int" >       21 </v>
  <v type="int" >       23 </v>
  <v type="int" >       24 </v>
  <v type="int" >       36 </v>
  <v type="int" >       44 </v>
  <v type="int" >       75 </v>
  <v type="int" >       59 </v>
  <v type="int" >       61 </v>
  <v type="int" >       25 </v>
  <v type="int" >        5 </v>
  <v type="int" >       29 </v>
  <v type="int" >       22 </v>
  <v type="int" >        4 </v>
  <v type="int" >       97 </v>
  <v type="int" >       66 </v>
  <v type="int" >       76 </v>
  <v type="int" >       53 </v>
  <v type="int" >       52 </v>
  <v type="int" >       69 </v>
  <v type="int" >       74 </v>
  <v type="int" >       80 </v>
  <v type="int" >       86 </v>
  <v type="int" >       71 </v>
  <v type="int" >       72 </v>
  <v type="int" >       78 </v>
  <v type="int" >       85 </v>
  <v type="int" >       38 </v>
  <v type="int" >       27 </v>
  <v type="int" >       19 </v>
  <v type="int" >       20 </v>
  <v type="int" >       31 </v>
  <v type="int" >       37 </v>
  <v type="int" >       93 </v>
  <v type="int" >       73 </v>
  <v type="int" >       70 </v>
  <v type="int" >       32 </v>
  <v type="int" >       45 </v>
  <v type="int" >       26 </v>
  <v type="int" >       28 </v>
  <v type="int" >       12 </v>
  <v type="int" >       30 </v>
  <v type="int" >       68 </v>
  <v type="int" >       60 </v>
  <v type="int" >       67 </v>
  <v type="int" >       79 </v>
 </varray>
 <kpoints>
  <generation param="Gamma">
   <v type="int" name="divisions">       1        1        1 </v>
   <v name="usershift">      0.00000000       0.00000000       0.00000000 </v>
   <v name="genvec1">      1.00000000      -0.00000000       0.00000000 </v>
   <v name="genvec2">      0.00000000       1.00000000       0.00000000 </v>
   <v name="genvec3">      0.00000000       0.00000000       1.00000000 </v>
   <v name="shift">      0.00000000       0.00000000       0.00000000 </v>
  </generation>
  <varray name="kpointlist" >
   <v>       0.00000000       0.00000000       0.00000000 </v>
  </varray>
  <varray name="weights" >
   <v>       1.00000000 </v>
  </varray>
 </kpoints>
 <parameters>
  <separator name="general" >
   <i type="string" name="SYSTEM">unknown system</i>
   <i type="logical" name="LCOMPAT"> F  </i>
  </separator>
  <separator name="electronic" >
   <i type="string" name="PREC">accura</i>
   <i name="ENMAX">    500.00000000</i>
   <i name="ENAUG">    644.87300000</i>
   <i name="EDIFF">      0.00000001</i>
   <i type="int" name="IALGO">    38</i>
   <i type="int" name="IWAVPR">    10</i>
   <i type="int" name="NBANDS">   244</i>
   <i name="NELECT">    388.00000000</i>
   <i type="int" name="TURBO">     0</i>
   <i type="int" name="IRESTART">     0</i>
   <i type="int" name="NREBOOT">     0</i>
   <i type="int" name="NMIN">     0</i>
   <i name="EREF">      0.00000000</i>
   <separator name="electronic smearing" >
    <i type="int" name="ISMEAR">     0</i>
    <i name="SIGMA">      0.01000000</i>
    <i name="KSPACING">      0.50000000</i>
    <i type="logical" name="KGAMMA"> T  </i>
   </separator>
   <separator name="electronic projectors" >
    <i type="logical" name="LREAL"> F  </i>
    <v name="ROPT">      0.00000000      0.00000000      0.00000000</v>
    <i type="int" name="LMAXPAW">  -100</i>
    <i type="int" name="LMAXMIX">     2</i>
    <i type="logical" name="NLSPLINE"> F  </i>
   </separator>
   <separator name="electronic startup" >
    <i type="int" name="ISTART">     0</i>
    <i type="int" name="ICHARG">     2</i>
    <i type="int" name="INIWAV">     1</i>
   </separator>
   <separator name="electronic spin" >
    <i type="int" name="ISPIN">     1</i>
    <i type="logical" name="LNONCOLLINEAR"> F  </i>
    <v name="MAGMOM">      1.00000000      1.00000000      1.00000000      1.00000000      1.00000000      1.00000000      1.00000000      1.00000000      1.00000000      1.00000000      1.00000000      1.00000000      1.00000000      1.00000000      1.00000000      1.00000000      1.00000000      1.00000000      1.00000000      1.00000000
      1.00000000      1.00000000      1.00000000      1.00000000      1.00000000      1.00000000      1.00000000      1.00000000      1.00000000      1.00000000      1.00000000      1.00000000      1.00000000      1.00000000      1.00000000      1.00000000      1.00000000      1.00000000      1.00000000      1.00000000
      1.00000000      1.00000000      1.00000000      1.00000000      1.00000000      1.00000000      1.00000000      1.00000000      1.00000000      1.00000000      1.00000000      1.00000000      1.00000000      1.00000000      1.00000000      1.00000000      1.00000000      1.00000000      1.00000000      1.00000000
      1.00000000      1.00000000      1.00000000      1.00000000      1.00000000      1.00000000      1.00000000      1.00000000      1.00000000      1.00000000      1.00000000      1.00000000      1.00000000      1.00000000      1.00000000      1.00000000      1.00000000      1.00000000      1.00000000      1.00000000
      1.00000000      1.00000000      1.00000000      1.00000000      1.00000000      1.00000000      1.00000000      1.00000000      1.00000000      1.00000000      1.00000000      1.00000000      1.00000000      1.00000000      1.00000000      1.00000000      1.00000000</v>
    <i name="NUPDOWN">     -1.00000000</i>
    <i type="logical" name="LSORBIT"> F  </i>
    <v name="SAXIS">      0.00000000      0.00000000      1.00000000</v>
    <i type="logical" name="LSPIRAL"> F  </i>
    <v name="QSPIRAL">      0.00000000      0.00000000      0.00000000</v>
    <i type="logical" name="LZEROZ"> F  </i>
   </separator>
   <separator name="electronic exchange-correlation" >
    <i type="logical" name="LASPH"> F  </i>
    <i type="logical" name="LMETAGGA"> F  </i>
   </separator>
   <separator name="electronic convergence" >
    <i type="int" name="NELM">    60</i>
    <i type="int" name="NELMDL">    -5</i>
    <i type="int" name="NELMIN">     5</i>
    <i name="ENINI">    500.00000000</i>
    <separator name="electronic convergence detail" >
     <i type="logical" name="LDIAG"> T  </i>
     <i type="logical" name="LSUBROT"> F  </i>
     <i name="WEIMIN">      0.00000000</i>
     <i name="EBREAK">      0.00000000</i>
     <i name="DEPER">      0.30000000</i>
     <i type="int" name="NRMM">     4</i>
     <i name="TIME">      0.40000000</i>
    </separator>
   </separator>
   <separator name="electronic mixer" >
    <i name="AMIX">      0.40000000</i>
    <i name="BMIX">      1.00000000</i>
    <i name="AMIN">      0.10000000</i>
    <i name="AMIX_MAG">      1.60000000</i>
    <i name="BMIX_MAG">      1.00000000</i>
    <separator name="electronic mixer details" >
     <i type="int" name="IMIX">     4</i>
     <i type="logical" name="MIXFIRST"> F  </i>
     <i type="int" name="MAXMIX">   -45</i>
     <i name="WC">    100.00000000</i>
     <i type="int" name="INIMIX">     1</i>
     <i type="int" name="MIXPRE">     1</i>
     <i type="int" name="MREMOVE">     5</i>
    </separator>
   </separator>
   <separator name="electronic dipolcorrection" >
    <i type="logical" name="LDIPOL"> F  </i>
    <i type="logical" name="LMONO"> F  </i>
    <i type="int" name="IDIPOL">     0</i>
    <i name="EPSILON">      1.00000000</i>
    <v name="DIPOL">   -100.00000000   -100.00000000   -100.00000000</v>
    <i name="EFIELD">      0.00000000</i>
   </separator>
  </separator>
  <separator name="grids" >
   <i type="int" name="NGX">   128</i>
   <i type="int" name="NGY">   128</i>
   <i type="int" name="NGZ">   150</i>
   <i type="int" name="NGXF">   256</i>
   <i type="int" name="NGYF">   256</i>
   <i type="int" name="NGZF">   300</i>
   <i type="logical" name="ADDGRID"> T  </i>
  </separator>
  <separator name="ionic" >
   <i type="int" name="NSW">     0</i>
   <i type="int" name="IBRION">    -1</i>
   <i type="int" name="MDALGO">     0</i>
   <i type="int" name="ISIF">     2</i>
   <i name="PSTRESS">      0.00000000</i>
   <i name="EDIFFG">     -0.00000001</i>
   <i type="int" name="NFREE">     0</i>
   <i name="POTIM">      0.50000000</i>
   <i name="SMASS">     -3.00000000</i>
   <i name="SCALEE">      1.00000000</i>
  </separator>
  <separator name="ionic md" >
   <i name="TEBEG">      0.00010000</i>
   <i name="TEEND">      0.00010000</i>
   <i type="int" name="NBLOCK">     1</i>
   <i type="int" name="KBLOCK">     1</i>
   <i type="int" name="NPACO">   256</i>
   <i name="APACO">     16.00000000</i>
  </separator>
  <separator name="symmetry" >
   <i type="int" name="ISYM">     2</i>
   <i name="SYMPREC">      0.00001000</i>
  </separator>
  <separator name="dos" >
   <i type="int" name="LORBIT">     0</i>
   <v name="RWIGS">     -1.00000000     -1.00000000     -1.00000000</v>
   <i type="int" name="NEDOS">   301</i>
   <i name="EMIN">     10.00000000</i>
   <i name="EMAX">    -10.00000000</i>
   <i name="EFERMI">      0.00000000</i>
  </separator>
  <separator name="writing" >
   <i type="int" name="NWRITE">     2</i>
   <i type="logical" name="LWAVE"> F  </i>
   <i type="logical" name="LDOWNSAMPLE"> F  </i>
   <i type="logical" name="LCHARG"> F  </i>
   <i type="logical" name="LPARD"> F  </i>
   <i type="logical" name="LVTOT"> F  </i>
   <i type="logical" name="LVHAR"> F  </i>
   <i type="logical" name="LELF"> F  </i>
   <i type="logical" name="LOPTICS"> F  </i>
   <v name="STM">      0.00000000      0.00000000      0.00000000      0.00000000      0.00000000      0.00000000      0.00000000</v>
  </separator>
  <separator name="performance" >
   <i type="int" name="NPAR">     4</i>
   <i type="int" name="NSIM">     4</i>
   <i type="int" name="NBLK">    -1</i>
   <i type="logical" name="LPLANE"> T  </i>
   <i type="logical" name="LSCALAPACK"> T  </i>
   <i type="logical" name="LSCAAWARE"> F  </i>
   <i type="logical" name="LSCALU"> F  </i>
   <i type="logical" name="LASYNC"> F  </i>
   <i type="logical" name="LORBITALREAL"> F  </i>
  </separator>
  <separator name="miscellaneous" >
   <i type="int" name="IDIOT">     3</i>
   <i type="int" name="ISPECIAL">     0</i>
   <i type="logical" name="LMUSIC"> F  </i>
   <v name="POMASS">     10.81100000     14.00100000     12.01100000</v>
   <v name="DARWINR">      0.00000000      0.00000000      0.00000000</v>
   <v name="DARWINV">      1.00000000      1.00000000      1.00000000</v>
   <i type="logical" name="LCORR"> T  </i>
  </separator>
  <i type="logical" name="GGA_COMPAT"> T  </i>
  <i type="logical" name="LBERRY"> F  </i>
  <i type="int" name="ICORELEVEL">     0</i>
  <i type="logical" name="LDAU"> F  </i>
  <i type="int" name="I_CONSTRAINED_M">     0</i>
  <separator name="electronic exchange-correlation" >
   <i type="string" name="GGA">--</i>
   <i type="int" name="VOSKOWN">     0</i>
   <i type="logical" name="LHFCALC"> F  </i>
   <i type="string" name="PRECFOCK"></i>
   <i type="logical" name="LSYMGRAD"> F  </i>
   <i type="logical" name="LHFONE"> F  </i>
   <i type="logical" name="LRHFCALC"> F  </i>
   <i type="logical" name="LTHOMAS"> F  </i>
   <i type="logical" name="LMODELHF"> F  </i>
   <i name="ENCUT4O">     -1.00000000</i>
   <i type="int" name="EXXOEP">     0</i>
   <i type="int" name="FOURORBIT">     0</i>
   <i name="AEXX">      0.00000000</i>
   <i name="HFALPHA">      0.00000000</i>
   <i name="MCALPHA">      0.00000000</i>
   <i name="ALDAX">      1.00000000</i>
   <i name="AGGAX">      1.00000000</i>
   <i name="ALDAC">      1.00000000</i>
   <i name="AGGAC">      1.00000000</i>
   <i type="int" name="NKREDX">     1</i>
   <i type="int" name="NKREDY">     1</i>
   <i type="int" name="NKREDZ">     1</i>
   <i type="logical" name="SHIFTRED"> F  </i>
   <i type="logical" name="ODDONLY"> F  </i>
   <i type="logical" name="EVENONLY"> F  </i>
   <i type="int" name="LMAXFOCK">     0</i>
   <i type="int" name="NMAXFOCKAE">     0</i>
   <i type="logical" name="LFOCKAEDFT"> F  </i>
   <i name="HFSCREEN">      0.00000000</i>
   <i name="HFSCREENC">      0.00000000</i>
   <i type="int" name="NBANDSGWLOW">     0</i>
  </separator>
  <separator name="vdW DFT" >
   <i type="logical" name="LUSE_VDW"> F  </i>
   <i name="Zab_VDW">     -0.84910000</i>
   <i name="PARAM1">      0.12340000</i>
   <i name="PARAM2">      1.00000000</i>
   <i name="PARAM3">      0.00000000</i>
  </separator>
  <separator name="model GW" >
   <i type="int" name="MODEL_GW">     0</i>
   <i name="MODEL_EPS0">     33.05532754</i>
   <i name="MODEL_ALPHA">      1.00000000</i>
  </separator>
  <separator name="linear response parameters" >
   <i type="logical" name="LEPSILON"> F  </i>
   <i type="logical" name="LRPA"> F  </i>
   <i type="logical" name="LNABLA"> F  </i>
   <i type="logical" name="LVEL"> F  </i>
   <i type="int" name="KINTER">     0</i>
   <i name="CSHIFT">      0.10000000</i>
   <i name="OMEGAMAX">     -1.00000000</i>
   <i name="DEG_THRESHOLD">      0.00200000</i>
   <i name="RTIME">     -0.10000000</i>
   <i name="WPLASMAI">      0.00000000</i>
   <v name="DFIELD">      0.00000000      0.00000000      0.00000000</v>
   <v name="WPLASMA">      0.00000000      0.00000000      0.00000000      0.00000000      0.00000000      0.00000000      0.00000000      0.00000000      0.00000000</v>
  </separator>
  <separator name="orbital magnetization" >
   <i type="logical" name="NUCIND"> F  </i>
   <v name="MAGPOS">      0.00000000      0.00000000      0.00000000</v>
   <i type="logical" name="LNICSALL"> T  </i>
   <i type="logical" name="ORBITALMAG"> F  </i>
   <i type="logical" name="LMAGBLOCH"> F  </i>
   <i type="logical" name="LCHIMAG"> F  </i>
   <i type="logical" name="LGAUGE"> T  </i>
   <i type="int" name="MAGATOM">     0</i>
   <v name="MAGDIPOL">      0.00000000      0.00000000      0.00000000</v>
   <v name="AVECCONST">      0.00000000      0.00000000      0.00000000</v>
  </separator>
  <separator name="response functions" >
   <i type="logical" name="LADDER"> F  </i>
   <i type="logical" name="LRPAFORCE"> F  </i>
   <i type="logical" name="LFXC"> F  </i>
   <i type="logical" name="LHARTREE"> T  </i>
   <i type="int" name="IBSE">     0</i>
   <v type="int" name="KPOINT">    -1     0     0     0</v>
   <i type="logical" name="LTCTE"> F  </i>
   <i type="logical" name="LTETE"> F  </i>
   <i type="logical" name="LTRIPLET"> F  </i>
   <i type="logical" name="LFXCEPS"> F  </i>
   <i type="logical" name="LFXHEG"> F  </i>
   <i type="int" name="NATURALO">     2</i>
   <i type="logical" name="L2ORDER"> F  </i>
   <i type="logical" name="LMP2LT"> F  </i>
   <i type="logical" name="LUSEW"> F  </i>
   <i name="ENCUTGW">     -2.00000000</i>
   <i name="ENCUTGWSOFT">     -2.00000000</i>
   <i name="ENCUTLF">     -1.00000000</i>
   <i type="int" name="LMAXMP2">    -1</i>
   <i name="SCISSOR">      0.00000000</i>
   <i type="int" name="NOMEGA">     0</i>
   <i type="int" name="NOMEGAR">     0</i>
   <i type="int" name="NBANDSGW">    -1</i>
   <i type="int" name="NBANDSO">    -1</i>
   <i type="int" name="NBANDSV">    -1</i>
   <i type="int" name="NELM">     1</i>
   <i type="int" name="NELMHF">     1</i>
   <i type="int" name="DIM">     3</i>
   <i type="int" name="ANTIRES">     0</i>
   <i name="OMEGAMAX">    -30.00000000</i>
   <i name="OMEGAMIN">    -30.00000000</i>
   <i name="OMEGATL">   -200.00000000</i>
   <i type="int" name="OMEGAGRID">   140</i>
   <i name="CSHIFT">     -0.10000000</i>
   <i type="logical" name="SELFENERGY"> F  </i>
   <i type="logical" name="LSPECTRAL"> F  </i>
   <i type="logical" name="LSPECTRALGW"> F  </i>
   <i type="logical" name="LSINGLES"> F  </i>
   <i type="logical" name="LFERMIGW"> F  </i>
   <i type="logical" name="ODDONLYGW"> F  </i>
   <i type="logical" name="EVENONLYGW"> F  </i>
   <i type="int" name="NKREDLFX">     1</i>
   <i type="int" name="NKREDLFY">     1</i>
   <i type="int" name="NKREDLFZ">     1</i>
   <i type="int" name="MAXMEM">  2800</i>
   <i type="int" name="TELESCOPE">     0</i>
   <i type="int" name="TAUPAR">     1</i>
   <i type="int" name="OMEGAPAR">    -1</i>
   <i name="LAMBDA">      1.00000000</i>
  </separator>
  <separator name="External order field" >
   <i name="OFIELD_KAPPA">      0.00000000</i>
   <v name="OFIELD_K">      0.00000000      0.00000000      0.00000000</v>
   <i name="OFIELD_Q6_NEAR">      0.00000000</i>
   <i name="OFIELD_Q6_FAR">      0.00000000</i>
   <i name="OFIELD_A">      0.00000000</i>
  </separator>
 </parameters>
 <atominfo>
  <atoms>      97 </atoms>
  <types>       3 </types>
  <array name="atoms" >
   <dimension dim="1">ion</dimension>
   <field type="string">element</field>
   <field type="int">atomtype</field>
   <set>
    <rc><c>B </c><c>   1</c></rc>
    <rc><c>B </c><c>   1</c></rc>
    <rc><c>B </c><c>   1</c></rc>
    <rc><c>B </c><c>   1</c></rc>
    <rc><c>B </c><c>   1</c></rc>
    <rc><c>B </c><c>   1</c></rc>
    <rc><c>B </c><c>   1</c></rc>
    <rc><c>B </c><c>   1</c></rc>
    <rc><c>B </c><c>   1</c></rc>
    <rc><c>B </c><c>   1</c></rc>
    <rc><c>B </c><c>   1</c></rc>
    <rc><c>B </c><c>   1</c></rc>
    <rc><c>B </c><c>   1</c></rc>
    <rc><c>B </c><c>   1</c></rc>
    <rc><c>B </c><c>   1</c></rc>
    <rc><c>B </c><c>   1</c></rc>
    <rc><c>B </c><c>   1</c></rc>
    <rc><c>B </c><c>   1</c></rc>
    <rc><c>B </c><c>   1</c></rc>
    <rc><c>B </c><c>   1</c></rc>
    <rc><c>B </c><c>   1</c></rc>
    <rc><c>B </c><c>   1</c></rc>
    <rc><c>B </c><c>   1</c></rc>
    <rc><c>B </c><c>   1</c></rc>
    <rc><c>B </c><c>   1</c></rc>
    <rc><c>B </c><c>   1</c></rc>
    <rc><c>B </c><c>   1</c></rc>
    <rc><c>B </c><c>   1</c></rc>
    <rc><c>B </c><c>   1</c></rc>
    <rc><c>B </c><c>   1</c></rc>
    <rc><c>B </c><c>   1</c></rc>
    <rc><c>B </c><c>   1</c></rc>
    <rc><c>B </c><c>   1</c></rc>
    <rc><c>B </c><c>   1</c></rc>
    <rc><c>B </c><c>   1</c></rc>
    <rc><c>B </c><c>   1</c></rc>
    <rc><c>B </c><c>   1</c></rc>
    <rc><c>B </c><c>   1</c></rc>
    <rc><c>B </c><c>   1</c></rc>
    <rc><c>B </c><c>   1</c></rc>
    <rc><c>B </c><c>   1</c></rc>
    <rc><c>B </c><c>   1</c></rc>
    <rc><c>B </c><c>   1</c></rc>
    <rc><c>B </c><c>   1</c></rc>
    <rc><c>B </c><c>   1</c></rc>
    <rc><c>B </c><c>   1</c></rc>
    <rc><c>B </c><c>   1</c></rc>
    <rc><c>B </c><c>   1</c></rc>
    <rc><c>N </c><c>   2</c></rc>
    <rc><c>N </c><c>   2</c></rc>
    <rc><c>N </c><c>   2</c></rc>
    <rc><c>N </c><c>   2</c></rc>
    <rc><c>N </c><c>   2</c></rc>
    <rc><c>N </c><c>   2</c></rc>
    <rc><c>N </c><c>   2</c></rc>
    <rc><c>N </c><c>   2</c></rc>
    <rc><c>N </c><c>   2</c></rc>
    <rc><c>N </c><c>   2</c></rc>
    <rc><c>N </c><c>   2</c></rc>
    <rc><c>N </c><c>   2</c></rc>
    <rc><c>N </c><c>   2</c></rc>
    <rc><c>N </c><c>   2</c></rc>
    <rc><c>N </c><c>   2</c></rc>
    <rc><c>N </c><c>   2</c></rc>
    <rc><c>N </c><c>   2</c></rc>
    <rc><c>N </c><c>   2</c></rc>
    <rc><c>N </c><c>   2</c></rc>
    <rc><c>N </c><c>   2</c></rc>
    <rc><c>N </c><c>   2</c></rc>
    <rc><c>N </c><c>   2</c></rc>
    <rc><c>N </c><c>   2</c></rc>
    <rc><c>N </c><c>   2</c></rc>
    <rc><c>N </c><c>   2</c></rc>
    <rc><c>N </c><c>   2</c></rc>
    <rc><c>N </c><c>   2</c></rc>
    <rc><c>N </c><c>   2</c></rc>
    <rc><c>N </c><c>   2</c></rc>
    <rc><c>N </c><c>   2</c></rc>
    <rc><c>N </c><c>   2</c></rc>
    <rc><c>N </c><c>   2</c></rc>
    <rc><c>N </c><c>   2</c></rc>
    <rc><c>N </c><c>   2</c></rc>
    <rc><c>N </c><c>   2</c></rc>
    <rc><c>N </c><c>   2</c></rc>
    <rc><c>N </c><c>   2</c></rc>
    <rc><c>N </c><c>   2</c></rc>
    <rc><c>N </c><c>   2</c></rc>
    <rc><c>N </c><c>   2</c></rc>
    <rc><c>N </c><c>   2</c></rc>
    <rc><c>N </c><c>   2</c></rc>
    <rc><c>N </c><c>   2</c></rc>
    <rc><c>N </c><c>   2</c></rc>
    <rc><c>N </c><c>   2</c></rc>
    <rc><c>N </c><c>   2</c></rc>
    <rc><c>N </c><c>   2</c></rc>
    <rc><c>N </c><c>   2</c></rc>
    <rc><c>C </c><c>   3</c></rc>
   </set>
  </array>
  <array name="atomtypes" >
   <dimension dim="1">type</dimension>
   <field type="int">atomspertype</field>
   <field type="string">element</field>
   <field>mass</field>
   <field>valence</field>
   <field type="string">pseudopotential</field>
   <set>
    <rc><c>  48</c><c>B </c><c>     10.81100000</c><c>      3.00000000</c><c>  PAW_PBE B 06Sep2000                   </c></rc>
    <rc><c>  48</c><c>N </c><c>     14.00100000</c><c>      5.00000000</c><c>  PAW_PBE N 08Apr2002                   </c></rc>
    <rc><c>   1</c><c>C </c><c>     12.01100000</c><c>      4.00000000</c><c>  PAW_PBE C 08Apr2002                   </c></rc>
   </set>
  </array>
 </atominfo>
 <structure name="initialpos" >
  <crystal>
   <varray name="basis" >
    <v>      17.59966831       0.00000000       0.00000000 </v>
    <v>      -8.79983416      15.24175986       0.00000000 </v>
    <v>       0.00000000       0.00000000      19.92151445 </v>
   </varray>
   <i name="volume">   5343.94461817 </i>
   <varray name="rec_basis" >
    <v>       0.05681925       0.03280461       0.00000000 </v>
    <v>       0.00000000       0.06560922       0.00000000 </v>
    <v>       0.00000000       0.00000000       0.05019699 </v>
   </varray>
  </crystal>
  <varray name="positions" >
   <v>       0.99943010       0.00005992       0.50000000 </v>
   <v>       0.14164706       0.99871895       0.50000000 </v>
   <v>       0.28492260       0.99841663       0.50000000 </v>
   <v>       0.42850047       0.99871895       0.50000000 </v>
   <v>       0.57205839       0.00005992       0.50000000 </v>
   <v>       0.71530655       0.00214292       0.50000000 </v>
   <v>       0.85826494       0.00214292       0.50000000 </v>
   <v>       0.00080792       0.14408264       0.50000000 </v>
   <v>       0.14259355       0.14244783       0.50000000 </v>
   <v>       0.28470221       0.14112972       0.50000000 </v>
   <v>       0.42785608       0.14112972       0.50000000 </v>
   <v>       0.57128286       0.14244783       0.50000000 </v>
   <v>       0.71470329       0.14408264       0.50000000 </v>
   <v>       0.85805263       0.14467669       0.50000000 </v>
   <v>       0.00095476       0.28713011       0.50000000 </v>
   <v>       0.14372552       0.28645370       0.50000000 </v>
   <v>       0.28540977       0.28469374       0.50000000 </v>
   <v>       0.42724431       0.28306005       0.50000000 </v>
   <v>       0.57071254       0.28469374       0.50000000 </v>
   <v>       0.71415674       0.28645370       0.50000000 </v>
   <v>       0.85760392       0.28713011       0.50000000 </v>
   <v>       0.00054479       0.42966101       0.50000000 </v>
   <v>       0.14422690       0.42957551       0.50000000 </v>
   <v>       0.28730213       0.42918005       0.50000000 </v>
   <v>       0.42797654       0.42569726       0.50000000 </v>
   <v>       0.56914930       0.42569726       0.50000000 </v>
   <v>       0.71330650       0.42918005       0.50000000 </v>
   <v>       0.85677719       0.42957551       0.50000000 </v>
   <v>       0.99928255       0.57181462       0.50000000 </v>
   <v>       0.14396064       0.57181462       0.50000000 </v>
   <v>       0.28862787       0.57181625       0.50000000 </v>
   <v>       0.43313209       0.57215564       0.50000000 </v>
   <v>       0.71045212       0.57215564       0.50000000 </v>
   <v>       0.85461695       0.57181625       0.50000000 </v>
   <v>       0.99707234       0.71370518       0.50000000 </v>
   <v>       0.14255519       0.71368182       0.50000000 </v>
   <v>       0.28806142       0.71370518       0.50000000 </v>
   <v>       0.43464191       0.71382540       0.50000000 </v>
   <v>       0.58510826       0.71626937       0.50000000 </v>
   <v>       0.70258968       0.71626937       0.50000000 </v>
   <v>       0.85061206       0.71382540       0.50000000 </v>
   <v>       0.99777175       0.85613493       0.50000000 </v>
   <v>       0.14160898       0.85648107       0.50000000 </v>
   <v>       0.28573247       0.85591288       0.50000000 </v>
   <v>       0.42979175       0.85613493       0.50000000 </v>
   <v>       0.57342541       0.85758690       0.50000000 </v>
   <v>       0.71640633       0.86138410       0.50000000 </v>
   <v>       0.85559006       0.85758690       0.50000000 </v>
   <v>       0.04754270       0.09547788       0.50000000 </v>
   <v>       0.18957833       0.09405657       0.50000000 </v>
   <v>       0.33254182       0.09365506       0.50000000 </v>
   <v>       0.47590681       0.09405657       0.50000000 </v>
   <v>       0.61936376       0.09547788       0.50000000 </v>
   <v>       0.76280004       0.09719274       0.50000000 </v>
   <v>       0.90582126       0.09719274       0.50000000 </v>
   <v>       0.04854983       0.23934281       0.50000000 </v>
   <v>       0.19048138       0.23782962       0.50000000 </v>
   <v>       0.33234878       0.23634667       0.50000000 </v>
   <v>       0.47542646       0.23634667       0.50000000 </v>
   <v>       0.61877681       0.23782962       0.50000000 </v>
   <v>       0.76222155       0.23934281       0.50000000 </v>
   <v>       0.90562797       0.23982737       0.50000000 </v>
   <v>       0.04871288       0.38232824       0.50000000 </v>
   <v>       0.19188940       0.38184213       0.50000000 </v>
   <v>       0.33352206       0.38013969       0.50000000 </v>
   <v>       0.47472270       0.37801683       0.50000000 </v>
   <v>       0.61804620       0.38013969       0.50000000 </v>
   <v>       0.76138130       0.38184213       0.50000000 </v>
   <v>       0.90504393       0.38232824       0.50000000 </v>
   <v>       0.04810654       0.52478452       0.50000000 </v>
   <v>       0.19263929       0.52476864       0.50000000 </v>
   <v>       0.33696521       0.52455433       0.50000000 </v>
   <v>       0.47833704       0.52146721       0.50000000 </v>
   <v>       0.61455874       0.52146721       0.50000000 </v>
   <v>       0.75901769       0.52455433       0.50000000 </v>
   <v>       0.90355792       0.52476864       0.50000000 </v>
   <v>       0.04642473       0.66685228       0.50000000 </v>
   <v>       0.19185612       0.66685228       0.50000000 </v>
   <v>       0.33777931       0.66688794       0.50000000 </v>
   <v>       0.48615700       0.66710760       0.50000000 </v>
   <v>       0.75237918       0.66710760       0.50000000 </v>
   <v>       0.90053720       0.66688794       0.50000000 </v>
   <v>       0.04582562       0.80879365       0.50000000 </v>
   <v>       0.19009580       0.80876303       0.50000000 </v>
   <v>       0.33439660       0.80879365       0.50000000 </v>
   <v>       0.47844872       0.80897069       0.50000000 </v>
   <v>       0.62209487       0.81129474       0.50000000 </v>
   <v>       0.76062845       0.81129474       0.50000000 </v>
   <v>       0.90195054       0.80897069       0.50000000 </v>
   <v>       0.04629157       0.95154386       0.50000000 </v>
   <v>       0.18948291       0.95113037       0.50000000 </v>
   <v>       0.33307603       0.95113037       0.50000000 </v>
   <v>       0.47668087       0.95154386       0.50000000 </v>
   <v>       0.62015751       0.95313740       0.50000000 </v>
   <v>       0.76355772       0.95568687       0.50000000 </v>
   <v>       0.90440847       0.95313740       0.50000000 </v>
   <v>       0.56830873       0.56518888       0.50000000 </v>
  </varray>
 </structure>
 <calculation>
  <scstep>
   <time name="dav">    2.36    2.38</time>
   <time name="total">    2.74    2.83</time>
   <energy>
    <i name="alphaZ">    156.50993408 </i>
    <i name="ewald">  58206.81263926 </i>
    <i name="hartreedc"> -70374.22133126 </i>
    <i name="XCdc">   1302.10909839 </i>
    <i name="pawpsdc">  12033.28670802 </i>
    <i name="pawaedc"> -12049.96799276 </i>
    <i name="eentropy">     -0.00000000 </i>
    <i name="bandstr">   -904.58857850 </i>
    <i name="atom">  16260.93880140 </i>
    <i name="e_fr_energy">   4630.87927863 </i>
    <i name="e_wo_entrp">   4630.87927863 </i>
    <i name="e_0_energy">   4630.87927863 </i>
   </energy>
  </scstep>
  <scstep>
   <time name="dav">    3.00    3.04</time>
   <time name="total">    3.00    3.04</time>
   <energy>
    <i name="e_fr_energy">    216.66636275 </i>
    <i name="e_wo_entrp">    216.66636275 </i>
    <i name="e_0_energy">    216.66636275 </i>
   </energy>
  </scstep>
  <scstep>
   <time name="dav">    2.48    2.51</time>
   <time name="total">    2.48    2.51</time>
   <energy>
    <i name="e_fr_energy">   -867.49437463 </i>
    <i name="e_wo_entrp">   -867.49437463 </i>
    <i name="e_0_energy">   -867.49437463 </i>
   </energy>
  </scstep>
  <scstep>
   <time name="dav">    2.48    2.51</time>
   <time name="total">    2.48    2.51</time>
   <energy>
    <i name="e_fr_energy">   -934.19591788 </i>
    <i name="e_wo_entrp">   -934.19591788 </i>
    <i name="e_0_energy">   -934.19591788 </i>
   </energy>
  </scstep>
  <scstep>
   <time name="dav">    2.50    2.53</time>
   <time name="total">    2.94    2.97</time>
   <energy>
    <i name="e_fr_energy">   -935.77584657 </i>
    <i name="e_wo_entrp">   -935.77584657 </i>
    <i name="e_0_energy">   -935.77584657 </i>
   </energy>
  </scstep>
  <scstep>
   <time name="dav">    2.33    2.35</time>
   <time name="total">    3.12    3.17</time>
   <energy>
    <i name="e_fr_energy">   -858.73245054 </i>
    <i name="e_wo_entrp">   -858.73245054 </i>
    <i name="e_0_energy">   -858.73245054 </i>
   </energy>
  </scstep>
  <scstep>
   <time name="dav">    2.36    2.38</time>
   <time name="total">    3.15    3.19</time>
   <energy>
    <i name="e_fr_energy">   -850.19315372 </i>
    <i name="e_wo_entrp">   -850.19315372 </i>
    <i name="e_0_energy">   -850.19315372 </i>
   </energy>
  </scstep>
  <scstep>
   <time name="dav">    2.29    2.30</time>
   <time name="total">    3.09    3.12</time>
   <energy>
    <i name="e_fr_energy">   -845.92598133 </i>
    <i name="e_wo_entrp">   -845.92598034 </i>
    <i name="e_0_energy">   -845.92598084 </i>
   </energy>
  </scstep>
  <scstep>
   <time name="dav">    2.31    2.34</time>
   <time name="total">    3.11    3.16</time>
   <energy>
    <i name="e_fr_energy">   -845.80073540 </i>
    <i name="e_wo_entrp">   -845.80073540 </i>
    <i name="e_0_energy">   -845.80073540 </i>
   </energy>
  </scstep>
  <scstep>
   <time name="dav">    2.39    2.40</time>
   <time name="total">    3.20    3.23</time>
   <energy>
    <i name="e_fr_energy">   -845.63914019 </i>
    <i name="e_wo_entrp">   -845.63914019 </i>
    <i name="e_0_energy">   -845.63914019 </i>
   </energy>
  </scstep>
  <scstep>
   <time name="dav">    2.23    2.25</time>
   <time name="total">    3.04    3.08</time>
   <energy>
    <i name="e_fr_energy">   -845.58678437 </i>
    <i name="e_wo_entrp">   -845.58678437 </i>
    <i name="e_0_energy">   -845.58678437 </i>
   </energy>
  </scstep>
  <scstep>
   <time name="dav">    2.25    2.29</time>
   <time name="total">    3.05    3.11</time>
   <energy>
    <i name="e_fr_energy">   -845.57399941 </i>
    <i name="e_wo_entrp">   -845.57399941 </i>
    <i name="e_0_energy">   -845.57399941 </i>
   </energy>
  </scstep>
  <scstep>
   <time name="dav">    2.23    2.25</time>
   <time name="total">    3.04    3.07</time>
   <energy>
    <i name="e_fr_energy">   -845.58454145 </i>
    <i name="e_wo_entrp">   -845.58454145 </i>
    <i name="e_0_energy">   -845.58454145 </i>
   </energy>
  </scstep>
  <scstep>
   <time name="dav">    2.23    2.25</time>
   <time name="total">    3.05    3.07</time>
   <energy>
    <i name="e_fr_energy">   -845.59422254 </i>
    <i name="e_wo_entrp">   -845.59422254 </i>
    <i name="e_0_energy">   -845.59422254 </i>
   </energy>
  </scstep>
  <scstep>
   <time name="dav">    2.67    2.72</time>
   <time name="total">    3.54    3.60</time>
   <energy>
    <i name="e_fr_energy">   -845.62548825 </i>
    <i name="e_wo_entrp">   -845.62548825 </i>
    <i name="e_0_energy">   -845.62548825 </i>
   </energy>
  </scstep>
  <scstep>
   <time name="dav">    2.22    2.24</time>
   <time name="total">    3.04    3.09</time>
   <energy>
    <i name="e_fr_energy">   -845.64185925 </i>
    <i name="e_wo_entrp">   -845.64185925 </i>
    <i name="e_0_energy">   -845.64185925 </i>
   </energy>
  </scstep>
  <scstep>
   <time name="dav">    2.26    2.28</time>
   <time name="total">    3.07    3.10</time>
   <energy>
    <i name="e_fr_energy">   -845.64814109 </i>
    <i name="e_wo_entrp">   -845.64814109 </i>
    <i name="e_0_energy">   -845.64814109 </i>
   </energy>
  </scstep>
  <scstep>
   <time name="dav">    2.19    2.22</time>
   <time name="total">    3.00    3.04</time>
   <energy>
    <i name="e_fr_energy">   -845.65126817 </i>
    <i name="e_wo_entrp">   -845.65126817 </i>
    <i name="e_0_energy">   -845.65126817 </i>
   </energy>
  </scstep>
  <scstep>
   <time name="dav">    2.30    2.33</time>
   <time name="total">    3.11    3.15</time>
   <energy>
    <i name="e_fr_energy">   -845.65229676 </i>
    <i name="e_wo_entrp">   -845.65229676 </i>
    <i name="e_0_energy">   -845.65229676 </i>
   </energy>
  </scstep>
  <scstep>
   <time name="dav">    2.23    2.26</time>
   <time name="total">    3.05    3.08</time>
   <energy>
    <i name="e_fr_energy">   -845.65271194 </i>
    <i name="e_wo_entrp">   -845.65271194 </i>
    <i name="e_0_energy">   -845.65271194 </i>
   </energy>
  </scstep>
  <scstep>
   <time name="dav">    2.24    2.26</time>
   <time name="total">    3.04    3.09</time>
   <energy>
    <i name="e_fr_energy">   -845.65291338 </i>
    <i name="e_wo_entrp">   -845.65291338 </i>
    <i name="e_0_energy">   -845.65291338 </i>
   </energy>
  </scstep>
  <scstep>
   <time name="dav">    2.18    2.20</time>
   <time name="total">    3.00    3.03</time>
   <energy>
    <i name="e_fr_energy">   -845.65302904 </i>
    <i name="e_wo_entrp">   -845.65302904 </i>
    <i name="e_0_energy">   -845.65302904 </i>
   </energy>
  </scstep>
  <scstep>
   <time name="dav">    2.26    2.28</time>
   <time name="total">    3.07    3.10</time>
   <energy>
    <i name="e_fr_energy">   -845.65310469 </i>
    <i name="e_wo_entrp">   -845.65310469 </i>
    <i name="e_0_energy">   -845.65310469 </i>
   </energy>
  </scstep>
  <scstep>
   <time name="dav">    2.28    2.30</time>
   <time name="total">    3.09    3.13</time>
   <energy>
    <i name="e_fr_energy">   -845.65314323 </i>
    <i name="e_wo_entrp">   -845.65314323 </i>
    <i name="e_0_energy">   -845.65314323 </i>
   </energy>
  </scstep>
  <scstep>
   <time name="dav">    2.27    2.29</time>
   <time name="total">    3.09    3.13</time>
   <energy>
    <i name="e_fr_energy">   -845.65316030 </i>
    <i name="e_wo_entrp">   -845.65316030 </i>
    <i name="e_0_energy">   -845.65316030 </i>
   </energy>
  </scstep>
  <scstep>
   <time name="dav">    2.20    2.23</time>
   <time name="total">    3.02    3.05</time>
   <energy>
    <i name="e_fr_energy">   -845.65317662 </i>
    <i name="e_wo_entrp">   -845.65317662 </i>
    <i name="e_0_energy">   -845.65317662 </i>
   </energy>
  </scstep>
  <scstep>
   <time name="dav">    2.21    2.23</time>
   <time name="total">    3.02    3.06</time>
   <energy>
    <i name="e_fr_energy">   -845.65317990 </i>
    <i name="e_wo_entrp">   -845.65317990 </i>
    <i name="e_0_energy">   -845.65317990 </i>
   </energy>
  </scstep>
  <scstep>
   <time name="dav">    1.94    1.97</time>
   <time name="total">    2.75    2.80</time>
   <energy>
    <i name="e_fr_energy">   -845.65318115 </i>
    <i name="e_wo_entrp">   -845.65318115 </i>
    <i name="e_0_energy">   -845.65318115 </i>
   </energy>
  </scstep>
  <scstep>
   <time name="dav">    1.80    1.81</time>
   <time name="total">    2.61    2.65</time>
   <energy>
    <i name="e_fr_energy">   -845.65318145 </i>
    <i name="e_wo_entrp">   -845.65318145 </i>
    <i name="e_0_energy">   -845.65318145 </i>
   </energy>
  </scstep>
  <scstep>
   <time name="dav">    1.69    1.71</time>
   <time name="total">    2.52    2.54</time>
   <energy>
    <i name="e_fr_energy">   -845.65318156 </i>
    <i name="e_wo_entrp">   -845.65318156 </i>
    <i name="e_0_energy">   -845.65318156 </i>
   </energy>
  </scstep>
  <scstep>
   <time name="dav">    1.67    1.68</time>
   <time name="total">    2.50    2.52</time>
   <energy>
    <i name="e_fr_energy">   -845.65318162 </i>
    <i name="e_wo_entrp">   -845.65318162 </i>
    <i name="e_0_energy">   -845.65318162 </i>
   </energy>
  </scstep>
  <scstep>
   <time name="dav">    1.72    1.74</time>
   <time name="total">    2.54    2.58</time>
   <energy>
    <i name="e_fr_energy">   -845.65318164 </i>
    <i name="e_wo_entrp">   -845.65318164 </i>
    <i name="e_0_energy">   -845.65318164 </i>
   </energy>
  </scstep>
  <scstep>
   <time name="dav">    1.80    1.81</time>
   <time name="total">    2.17    2.20</time>
   <energy>
    <i name="alphaZ">    156.50993408 </i>
    <i name="ewald">  58206.81263926 </i>
    <i name="hartreedc"> -72314.30417195 </i>
    <i name="XCdc">   1369.72461181 </i>
    <i name="pawpsdc">  44019.08932601 </i>
    <i name="pawaedc"> -44054.43133133 </i>
    <i name="eentropy">     -0.00000000 </i>
    <i name="bandstr">  -4489.99299093 </i>
    <i name="atom">  16260.93880140 </i>
    <i name="e_fr_energy">   -845.65318165 </i>
    <i name="e_wo_entrp">   -845.65318165 </i>
    <i name="e_0_energy">   -845.65318165 </i>
   </energy>
  </scstep>
  <structure>
   <crystal>
    <varray name="basis" >
     <v>      17.59966831       0.00000000       0.00000000 </v>
     <v>      -8.79983416      15.24175986       0.00000000 </v>
     <v>       0.00000000       0.00000000      19.92151445 </v>
    </varray>
    <i name="volume">   5343.94461817 </i>
    <varray name="rec_basis" >
     <v>       0.05681925       0.03280461       0.00000000 </v>
     <v>       0.00000000       0.06560922       0.00000000 </v>
     <v>       0.00000000       0.00000000       0.05019699 </v>
    </varray>
   </crystal>
   <varray name="positions" >
    <v>       0.99943010       0.00005992       0.50000000 </v>
    <v>       0.14164706       0.99871895       0.50000000 </v>
    <v>       0.28492260       0.99841663       0.50000000 </v>
    <v>       0.42850047       0.99871895       0.50000000 </v>
    <v>       0.57205839       0.00005992       0.50000000 </v>
    <v>       0.71530655       0.00214292       0.50000000 </v>
    <v>       0.85826494       0.00214292       0.50000000 </v>
    <v>       0.00080792       0.14408264       0.50000000 </v>
    <v>       0.14259355       0.14244783       0.50000000 </v>
    <v>       0.28470221       0.14112972       0.50000000 </v>
    <v>       0.42785608       0.14112972       0.50000000 </v>
    <v>       0.57128286       0.14244783       0.50000000 </v>
    <v>       0.71470329       0.14408264       0.50000000 </v>
    <v>       0.85805263       0.14467669       0.50000000 </v>
    <v>       0.00095476       0.28713011       0.50000000 </v>
    <v>       0.14372552       0.28645370       0.50000000 </v>
    <v>       0.28540977       0.28469374       0.50000000 </v>
    <v>       0.42724431       0.28306005       0.50000000 </v>
    <v>       0.57071254       0.28469374       0.50000000 </v>
    <v>       0.71415674       0.28645370       0.50000000 </v>
    <v>       0.85760392       0.28713011       0.50000000 </v>
    <v>       0.00054479       0.42966101       0.50000000 </v>
    <v>       0.14422690       0.42957551       0.50000000 </v>
    <v>       0.28730213       0.42918005       0.50000000 </v>
    <v>       0.42797654       0.42569726       0.50000000 </v>
    <v>       0.56914930       0.42569726       0.50000000 </v>
    <v>       0.71330650       0.42918005       0.50000000 </v>
    <v>       0.85677719       0.42957551       0.50000000 </v>
    <v>       0.99928255       0.57181462       0.50000000 </v>
    <v>       0.14396064       0.57181462       0.50000000 </v>
    <v>       0.28862787       0.57181625       0.50000000 </v>
    <v>       0.43313209       0.57215564       0.50000000 </v>
    <v>       0.71045212       0.57215564       0.50000000 </v>
    <v>       0.85461695       0.57181625       0.50000000 </v>
    <v>       0.99707234       0.71370518       0.50000000 </v>
    <v>       0.14255519       0.71368182       0.50000000 </v>
    <v>       0.28806142       0.71370518       0.50000000 </v>
    <v>       0.43464191       0.71382540       0.50000000 </v>
    <v>       0.58510826       0.71626937       0.50000000 </v>
    <v>       0.70258968       0.71626937       0.50000000 </v>
    <v>       0.85061206       0.71382540       0.50000000 </v>
    <v>       0.99777175       0.85613493       0.50000000 </v>
    <v>       0.14160898       0.85648107       0.50000000 </v>
    <v>       0.28573247       0.85591288       0.50000000 </v>
    <v>       0.42979175       0.85613493       0.50000000 </v>
    <v>       0.57342541       0.85758690       0.50000000 </v>
    <v>       0.71640633       0.86138410       0.50000000 </v>
    <v>       0.85559006       0.85758690       0.50000000 </v>
    <v>       0.04754270       0.09547788       0.50000000 </v>
    <v>       0.18957833       0.09405657       0.50000000 </v>
    <v>       0.33254182       0.09365506       0.50000000 </v>
    <v>       0.47590681       0.09405657       0.50000000 </v>
    <v>       0.61936376       0.09547788       0.50000000 </v>
    <v>       0.76280004       0.09719274       0.50000000 </v>
    <v>       0.90582126       0.09719274       0.50000000 </v>
    <v>       0.04854983       0.23934281       0.50000000 </v>
    <v>       0.19048138       0.23782962       0.50000000 </v>
    <v>       0.33234878       0.23634667       0.50000000 </v>
    <v>       0.47542646       0.23634667       0.50000000 </v>
    <v>       0.61877681       0.23782962       0.50000000 </v>
    <v>       0.76222155       0.23934281       0.50000000 </v>
    <v>       0.90562797       0.23982737       0.50000000 </v>
    <v>       0.04871288       0.38232824       0.50000000 </v>
    <v>       0.19188940       0.38184213       0.50000000 </v>
    <v>       0.33352206       0.38013969       0.50000000 </v>
    <v>       0.47472270       0.37801683       0.50000000 </v>
    <v>       0.61804620       0.38013969       0.50000000 </v>
    <v>       0.76138130       0.38184213       0.50000000 </v>
    <v>       0.90504393       0.38232824       0.50000000 </v>
    <v>       0.04810654       0.52478452       0.50000000 </v>
    <v>       0.19263929       0.52476864       0.50000000 </v>
    <v>       0.33696521       0.52455433       0.50000000 </v>
    <v>       0.47833704       0.52146721       0.50000000 </v>
    <v>       0.61455874       0.52146721       0.50000000 </v>
    <v>       0.75901769       0.52455433       0.50000000 </v>
    <v>       0.90355792       0.52476864       0.50000000 </v>
    <v>       0.04642473       0.66685228       0.50000000 </v>
    <v>       0.19185612       0.66685228       0.50000000 </v>
    <v>       0.33777931       0.66688794       0.50000000 </v>
    <v>       0.48615700       0.66710760       0.50000000 </v>
    <v>       0.75237918       0.66710760       0.50000000 </v>
    <v>       0.90053720       0.66688794       0.50000000 </v>
    <v>       0.04582562       0.80879365       0.50000000 </v>
    <v>       0.19009580       0.80876303       0.50000000 </v>
    <v>       0.33439660       0.80879365       0.50000000 </v>
    <v>       0.47844872       0.80897069       0.50000000 </v>
    <v>       0.62209487       0.81129474       0.50000000 </v>
    <v>       0.76062845       0.81129474       0.50000000 </v>
    <v>       0.90195054       0.80897069       0.50000000 </v>
    <v>       0.04629157       0.95154386       0.50000000 </v>
    <v>       0.18948291       0.95113037       0.50000000 </v>
    <v>       0.33307603       0.95113037       0.50000000 </v>
    <v>       0.47668087       0.95154386       0.50000000 </v>
    <v>       0.62015751       0.95313740       0.50000000 </v>
    <v>       0.76355772       0.95568687       0.50000000 </v>
    <v>       0.90440847       0.95313740       0.50000000 </v>
    <v>       0.56830873       0.56518888       0.50000000 </v>
   </varray>
  </structure>
  <varray name="forces" >
   <v>      -0.04543984      -0.02375060       0.00000000 </v>
   <v>      -0.05194476       0.02376046       0.00000000 </v>
   <v>       0.04204082      -0.00252150       0.00000000 </v>
   <v>       0.02242730      -0.01074187       0.00000000 </v>
   <v>       0.03834396      -0.02777185       0.00000000 </v>
   <v>      -0.03491709      -0.05000656       0.00000000 </v>
   <v>       0.03178430      -0.04935396       0.00000000 </v>
   <v>      -0.00893774      -0.02502458       0.00000000 </v>
   <v>      -0.03228917      -0.02184592       0.00000000 </v>
   <v>      -0.00712496      -0.02719799       0.00000000 </v>
   <v>       0.01531407      -0.03191814       0.00000000 </v>
   <v>       0.02886338      -0.02505016       0.00000000 </v>
   <v>       0.00577108      -0.02656579       0.00000000 </v>
   <v>      -0.00128959      -0.04052454       0.00000000 </v>
   <v>      -0.00980190      -0.02713388       0.00000000 </v>
   <v>       0.00332216      -0.04194167       0.00000000 </v>
   <v>      -0.03184967       0.00013185       0.00000000 </v>
   <v>       0.00178889      -0.09151427       0.00000000 </v>
   <v>       0.03269685      -0.00166500      -0.00000000 </v>
   <v>      -0.00438814      -0.04343398       0.00000000 </v>
   <v>       0.00835860      -0.02769231       0.00000000 </v>
   <v>      -0.00015313       0.01083273       0.00000000 </v>
   <v>      -0.02651007       0.00195422       0.00000000 </v>
   <v>       0.05610733      -0.13629889       0.00000000 </v>
   <v>      -0.11211129      -0.19887397       0.00000000 </v>
   <v>       0.11282690      -0.19939052       0.00000000 </v>
   <v>      -0.05606077      -0.13789209       0.00000000 </v>
   <v>       0.02604220       0.00082366       0.00000000 </v>
   <v>       0.01743626       0.03536124      -0.00000000 </v>
   <v>      -0.01745543       0.03531665       0.00000000 </v>
   <v>      -0.08751941       0.13063806       0.00000000 </v>
   <v>       0.04931485       0.39752186       0.00000000 </v>
   <v>      -0.04990189       0.39640034      -0.00000000 </v>
   <v>       0.08862465       0.12708979      -0.00000000 </v>
   <v>       0.01669429       0.02299770       0.00000000 </v>
   <v>      -0.01357221       0.07014565       0.00000000 </v>
   <v>       0.00257414       0.02485976       0.00000000 </v>
   <v>       0.08361027       0.04273647       0.00000000 </v>
   <v>       1.36343617       1.25023976       0.00000000 </v>
   <v>      -1.36430700       1.25013123       0.00000000 </v>
   <v>      -0.08592862       0.04199038       0.00000000 </v>
   <v>      -0.06004306      -0.02924459      -0.00000000 </v>
   <v>       0.22294785      -0.43451720       0.00000000 </v>
   <v>      -0.01659580      -0.03514460       0.00000000 </v>
   <v>       0.04160240      -0.01340843       0.00000000 </v>
   <v>       0.14903726       0.03489893       0.00000000 </v>
   <v>      -0.00107407      -0.25336112       0.00000000 </v>
   <v>      -0.15161775       0.03318997       0.00000000 </v>
   <v>       0.03055273       0.03015413       0.00000000 </v>
   <v>       0.01297236       0.01369725      -0.00000000 </v>
   <v>      -0.00813652       0.01667921      -0.00000000 </v>
   <v>      -0.01414205       0.02498720      -0.00000000 </v>
   <v>      -0.02712194       0.03310924      -0.00000000 </v>
   <v>      -0.01190244       0.02718339       0.00000000 </v>
   <v>       0.01448265       0.02663309       0.00000000 </v>
   <v>       0.01807142       0.03352286       0.00000000 </v>
   <v>      -0.00669307       0.00010250       0.00000000 </v>
   <v>       0.01553535       0.03103831       0.00000000 </v>
   <v>      -0.01822167       0.03354916      -0.00000000 </v>
   <v>       0.00709808       0.00300636       0.00000000 </v>
   <v>      -0.01676561       0.03496956      -0.00000000 </v>
   <v>       0.00065478       0.03001458       0.00000000 </v>
   <v>       0.01201251       0.02376219      -0.00000000 </v>
   <v>       0.04949458       0.05707293       0.00000000 </v>
   <v>      -0.02081421      -0.20244001       0.00000000 </v>
   <v>      -0.00038972       0.10844124      -0.00000000 </v>
   <v>       0.02055934      -0.20084551      -0.00000000 </v>
   <v>      -0.04924452       0.05851036      -0.00000000 </v>
   <v>      -0.01172289       0.02436562      -0.00000000 </v>
   <v>      -0.00025146       0.00457498       0.00000000 </v>
   <v>       0.02780710      -0.01047597       0.00000000 </v>
   <v>       0.19210755       0.11051044       0.00000000 </v>
   <v>       1.02364374      -1.56441646       0.00000000 </v>
   <v>      -1.02313311      -1.56401109       0.00000000 </v>
   <v>      -0.19151169       0.11254590       0.00000000 </v>
   <v>      -0.02882652      -0.00946819       0.00000000 </v>
   <v>      -0.00118307      -0.04166526      -0.00000000 </v>
   <v>      -0.00242545      -0.03994711      -0.00000000 </v>
   <v>      -0.05462441      -0.06867764       0.00000000 </v>
   <v>      -0.26842686       0.00848736       0.00000000 </v>
   <v>       0.27017568       0.00963083       0.00000000 </v>
   <v>       0.05695413      -0.06115119       0.00000000 </v>
   <v>      -0.00466007       0.05731933      -0.00000000 </v>
   <v>      -0.12954155       0.10911959       0.00000000 </v>
   <v>      -0.02335343      -0.01118512       0.00000000 </v>
   <v>      -0.08218320      -0.01238925      -0.00000000 </v>
   <v>      -0.88474726       0.24433726      -0.00000000 </v>
   <v>       0.88703424       0.24504217       0.00000000 </v>
   <v>       0.08185971      -0.00893947       0.00000000 </v>
   <v>       0.04491780       0.02201546      -0.00000000 </v>
   <v>      -0.02949539       0.18965022       0.00000000 </v>
   <v>      -0.02093434       0.01536649       0.00000000 </v>
   <v>      -0.03149978       0.02091954      -0.00000000 </v>
   <v>      -0.10954081       0.12008945       0.00000000 </v>
   <v>       0.00149031       0.01677422      -0.00000000 </v>
   <v>       0.11418162       0.12046890       0.00000000 </v>
   <v>      -0.00024528      -0.11927380       0.00000000 </v>
  </varray>
  <varray name="stress" >
   <v>     -10.63232331       0.01619245       0.00000000 </v>
   <v>       0.01619245       3.07018918       0.00000000 </v>
   <v>       0.00000000       0.00000000      -0.42556668 </v>
  </varray>
  <energy>
   <i name="e_fr_energy">   -845.65318165 </i>
   <i name="e_wo_entrp">   -845.65318165 </i>
   <i name="e_0_energy">     -0.00000000 </i>
  </energy>
  <time name="totalsc">  104.28  105.71</time>
  <eigenvalues>
   <array>
    <dimension dim="1">band</dimension>
    <dimension dim="2">kpoint</dimension>
    <dimension dim="3">spin</dimension>
    <field>eigene</field>
    <field>occ</field>
    <set>
     <set comment="spin 1">
      <set comment="kpoint 1">
       <r>  -22.5413    1.0000 </r>
       <r>  -22.0208    1.0000 </r>
       <r>  -21.7741    1.0000 </r>
       <r>  -21.7476    1.0000 </r>
       <r>  -21.6913    1.0000 </r>
       <r>  -21.6552    1.0000 </r>
       <r>  -21.6181    1.0000 </r>
       <r>  -21.2375    1.0000 </r>
       <r>  -21.0700    1.0000 </r>
       <r>  -21.0043    1.0000 </r>
       <r>  -20.9697    1.0000 </r>
       <r>  -20.9274    1.0000 </r>
       <r>  -20.8715    1.0000 </r>
       <r>  -20.7462    1.0000 </r>
       <r>  -20.7054    1.0000 </r>
       <r>  -20.6644    1.0000 </r>
       <r>  -20.5943    1.0000 </r>
       <r>  -20.5677    1.0000 </r>
       <r>  -20.4268    1.0000 </r>
       <r>  -19.9801    1.0000 </r>
       <r>  -19.9249    1.0000 </r>
       <r>  -19.8058    1.0000 </r>
       <r>  -19.7665    1.0000 </r>
       <r>  -19.7374    1.0000 </r>
       <r>  -19.7291    1.0000 </r>
       <r>  -19.7066    1.0000 </r>
       <r>  -19.6983    1.0000 </r>
       <r>  -19.6435    1.0000 </r>
       <r>  -19.6411    1.0000 </r>
       <r>  -19.6303    1.0000 </r>
       <r>  -19.4944    1.0000 </r>
       <r>  -19.4122    1.0000 </r>
       <r>  -19.3654    1.0000 </r>
       <r>  -19.3516    1.0000 </r>
       <r>  -19.2877    1.0000 </r>
       <r>  -19.2391    1.0000 </r>
       <r>  -19.1058    1.0000 </r>
       <r>  -19.0021    1.0000 </r>
       <r>  -18.9295    1.0000 </r>
       <r>  -18.8788    1.0000 </r>
       <r>  -18.8536    1.0000 </r>
       <r>  -18.8370    1.0000 </r>
       <r>  -18.7658    1.0000 </r>
       <r>  -18.7528    1.0000 </r>
       <r>  -18.7250    1.0000 </r>
       <r>  -18.7146    1.0000 </r>
       <r>  -18.6900    1.0000 </r>
       <r>  -18.4448    1.0000 </r>
       <r>  -14.1407    1.0000 </r>
       <r>  -13.1861    1.0000 </r>
       <r>  -13.1566    1.0000 </r>
       <r>  -13.1103    1.0000 </r>
       <r>  -13.1049    1.0000 </r>
       <r>  -13.0814    1.0000 </r>
       <r>  -13.0148    1.0000 </r>
       <r>  -12.9538    1.0000 </r>
       <r>  -12.9501    1.0000 </r>
       <r>  -12.9366    1.0000 </r>
       <r>  -12.8057    1.0000 </r>
       <r>  -12.7688    1.0000 </r>
       <r>  -12.6008    1.0000 </r>
       <r>  -12.5041    1.0000 </r>
       <r>  -12.4861    1.0000 </r>
       <r>  -12.3792    1.0000 </r>
       <r>  -12.3043    1.0000 </r>
       <r>  -12.2965    1.0000 </r>
       <r>  -12.1778    1.0000 </r>
       <r>  -11.9022    1.0000 </r>
       <r>  -11.8874    1.0000 </r>
       <r>  -11.7670    1.0000 </r>
       <r>  -11.7638    1.0000 </r>
       <r>  -11.7513    1.0000 </r>
       <r>  -11.7406    1.0000 </r>
       <r>  -11.6958    1.0000 </r>
       <r>  -11.6577    1.0000 </r>
       <r>  -11.6315    1.0000 </r>
       <r>  -11.5391    1.0000 </r>
       <r>  -11.4223    1.0000 </r>
       <r>  -11.1998    1.0000 </r>
       <r>  -11.1241    1.0000 </r>
       <r>  -11.0862    1.0000 </r>
       <r>  -11.0580    1.0000 </r>
       <r>  -10.9661    1.0000 </r>
       <r>  -10.9077    1.0000 </r>
       <r>  -10.6840    1.0000 </r>
       <r>  -10.4585    1.0000 </r>
       <r>  -10.4324    1.0000 </r>
       <r>  -10.3505    1.0000 </r>
       <r>  -10.2554    1.0000 </r>
       <r>  -10.2086    1.0000 </r>
       <r>   -9.8902    1.0000 </r>
       <r>   -9.7688    1.0000 </r>
       <r>   -9.7643    1.0000 </r>
       <r>   -9.7252    1.0000 </r>
       <r>   -9.6765    1.0000 </r>
       <r>   -9.5901    1.0000 </r>
       <r>   -9.5464    1.0000 </r>
       <r>   -9.4969    1.0000 </r>
       <r>   -9.4649    1.0000 </r>
       <r>   -9.3518    1.0000 </r>
       <r>   -9.3466    1.0000 </r>
       <r>   -9.2882    1.0000 </r>
       <r>   -9.2607    1.0000 </r>
       <r>   -9.2551    1.0000 </r>
       <r>   -9.2525    1.0000 </r>
       <r>   -9.2374    1.0000 </r>
       <r>   -9.2242    1.0000 </r>
       <r>   -9.2225    1.0000 </r>
       <r>   -9.2073    1.0000 </r>
       <r>   -9.2026    1.0000 </r>
       <r>   -9.2010    1.0000 </r>
       <r>   -9.1946    1.0000 </r>
       <r>   -9.1510    1.0000 </r>
       <r>   -9.1364    1.0000 </r>
       <r>   -9.1118    1.0000 </r>
       <r>   -9.1066    1.0000 </r>
       <r>   -9.1003    1.0000 </r>
       <r>   -9.0487    1.0000 </r>
       <r>   -8.9937    1.0000 </r>
       <r>   -8.8410    1.0000 </r>
       <r>   -8.7966    1.0000 </r>
       <r>   -8.6536    1.0000 </r>
       <r>   -8.5093    1.0000 </r>
       <r>   -8.4786    1.0000 </r>
       <r>   -8.4413    1.0000 </r>
       <r>   -8.3266    1.0000 </r>
       <r>   -8.2236    1.0000 </r>
       <r>   -8.2039    1.0000 </r>
       <r>   -8.1978    1.0000 </r>
       <r>   -8.1711    1.0000 </r>
       <r>   -8.1488    1.0000 </r>
       <r>   -8.1239    1.0000 </r>
       <r>   -8.0373    1.0000 </r>
       <r>   -7.9689    1.0000 </r>
       <r>   -7.9508    1.0000 </r>
       <r>   -7.8746    1.0000 </r>
       <r>   -7.8471    1.0000 </r>
       <r>   -7.8423    1.0000 </r>
       <r>   -7.8069    1.0000 </r>
       <r>   -7.8008    1.0000 </r>
       <r>   -7.7974    1.0000 </r>
       <r>   -7.7398    1.0000 </r>
       <r>   -7.7350    1.0000 </r>
       <r>   -7.7130    1.0000 </r>
       <r>   -7.6775    1.0000 </r>
       <r>   -7.6738    1.0000 </r>
       <r>   -7.6640    1.0000 </r>
       <r>   -7.6371    1.0000 </r>
       <r>   -7.6302    1.0000 </r>
       <r>   -7.4407    1.0000 </r>
       <r>   -7.4386    1.0000 </r>
       <r>   -7.4283    1.0000 </r>
       <r>   -7.3850    1.0000 </r>
       <r>   -7.3563    1.0000 </r>
       <r>   -7.2730    1.0000 </r>
       <r>   -6.8333    1.0000 </r>
       <r>   -6.7574    1.0000 </r>
       <r>   -6.6153    1.0000 </r>
       <r>   -6.6067    1.0000 </r>
       <r>   -6.5417    1.0000 </r>
       <r>   -6.5394    1.0000 </r>
       <r>   -6.5066    1.0000 </r>
       <r>   -6.4902    1.0000 </r>
       <r>   -6.4601    1.0000 </r>
       <r>   -6.4570    1.0000 </r>
       <r>   -6.4399    1.0000 </r>
       <r>   -6.4339    1.0000 </r>
       <r>   -6.4097    1.0000 </r>
       <r>   -6.4041    1.0000 </r>
       <r>   -6.3587    1.0000 </r>
       <r>   -6.3462    1.0000 </r>
       <r>   -6.3206    1.0000 </r>
       <r>   -6.1115    1.0000 </r>
       <r>   -5.9678    1.0000 </r>
       <r>   -5.9269    1.0000 </r>
       <r>   -5.8886    1.0000 </r>
       <r>   -5.8829    1.0000 </r>
       <r>   -5.8586    1.0000 </r>
       <r>   -5.7797    1.0000 </r>
       <r>   -5.7789    1.0000 </r>
       <r>   -5.5257    1.0000 </r>
       <r>   -5.2229    1.0000 </r>
       <r>   -5.1973    1.0000 </r>
       <r>   -5.1961    1.0000 </r>
       <r>   -5.1401    1.0000 </r>
       <r>   -5.1340    1.0000 </r>
       <r>   -5.1039    1.0000 </r>
       <r>   -4.9988    1.0000 </r>
       <r>   -4.9479    1.0000 </r>
       <r>   -4.9139    1.0000 </r>
       <r>   -4.9071    1.0000 </r>
       <r>   -4.8987    1.0000 </r>
       <r>   -4.7320    1.0000 </r>
       <r>   -1.3157    1.0000 </r>
       <r>   -1.2024    0.0000 </r>
       <r>    0.0585    0.0000 </r>
       <r>    0.2048    0.0000 </r>
       <r>    0.2422    0.0000 </r>
       <r>    0.2596    0.0000 </r>
       <r>    0.2603    0.0000 </r>
       <r>    0.2987    0.0000 </r>
       <r>    0.3042    0.0000 </r>
       <r>    0.3794    0.0000 </r>
       <r>    0.3956    0.0000 </r>
       <r>    0.4338    0.0000 </r>
       <r>    0.4802    0.0000 </r>
       <r>    0.5266    0.0000 </r>
       <r>    0.6110    0.0000 </r>
       <r>    0.7486    0.0000 </r>
       <r>    0.7504    0.0000 </r>
       <r>    0.7772    0.0000 </r>
       <r>    0.8063    0.0000 </r>
       <r>    0.8120    0.0000 </r>
       <r>    0.8275    0.0000 </r>
       <r>    0.8386    0.0000 </r>
       <r>    0.8581    0.0000 </r>
       <r>    0.8710    0.0000 </r>
       <r>    0.9801    0.0000 </r>
       <r>    1.0199    0.0000 </r>
       <r>    1.0582    0.0000 </r>
       <r>    1.1182    0.0000 </r>
       <r>    1.4953    0.0000 </r>
       <r>    1.6733    0.0000 </r>
       <r>    1.6969    0.0000 </r>
       <r>    1.7055    0.0000 </r>
       <r>    1.7244    0.0000 </r>
       <r>    1.7399    0.0000 </r>
       <r>    1.7445    0.0000 </r>
       <r>    1.8045    0.0000 </r>
       <r>    1.8066    0.0000 </r>
       <r>    1.8472    0.0000 </r>
       <r>    1.8484    0.0000 </r>
       <r>    1.8783    0.0000 </r>
       <r>    1.8814    0.0000 </r>
       <r>    1.9061    0.0000 </r>
       <r>    1.9066    0.0000 </r>
       <r>    1.9288    0.0000 </r>
       <r>    1.9831    0.0000 </r>
       <r>    2.0296    0.0000 </r>
       <r>    2.1043    0.0000 </r>
       <r>    2.1102    0.0000 </r>
       <r>    2.1261    0.0000 </r>
       <r>    2.1338    0.0000 </r>
       <r>    2.1403    0.0000 </r>
      </set>
     </set>
    </set>
   </array>
  </eigenvalues>
  <separator name="orbital magnetization" >
   <v name="MAGDIPOLOUT">      0.00000000      0.00000000      0.00000000</v>
  </separator>
  <dos>
   <i name="efermi">     -1.25239294 </i>
   <total>
    <array>
     <dimension dim="1">gridpoints</dimension>
     <dimension dim="2">spin</dimension>
     <field>energy</field>
     <field>total</field>
     <field>integrated</field>
     <set>
      <set comment="spin 1">
       <r>   -23.7754     0.0000     0.0000 </r>
       <r>   -23.6849     0.0000     0.0000 </r>
       <r>   -23.5944     0.0000     0.0000 </r>
       <r>   -23.5039     0.0000     0.0000 </r>
       <r>   -23.4134     0.0000     0.0000 </r>
       <r>   -23.3229     0.0000     0.0000 </r>
       <r>   -23.2324     0.0000     0.0000 </r>
       <r>   -23.1419     0.0000     0.0000 </r>
       <r>   -23.0514     0.0000     0.0000 </r>
       <r>   -22.9609     0.0000     0.0000 </r>
       <r>   -22.8704     0.0000     0.0000 </r>
       <r>   -22.7799     0.0000     0.0000 </r>
       <r>   -22.6894     0.0000     0.0000 </r>
       <r>   -22.5989     0.0000     0.0000 </r>
       <r>   -22.5084    22.0996     2.0000 </r>
       <r>   -22.4179     0.0000     2.0000 </r>
       <r>   -22.3274     0.0000     2.0000 </r>
       <r>   -22.2369     0.0000     2.0000 </r>
       <r>   -22.1464     0.0000     2.0000 </r>
       <r>   -22.0559     0.0000     2.0000 </r>
       <r>   -21.9654    22.0996     4.0000 </r>
       <r>   -21.8749     0.0000     4.0000 </r>
       <r>   -21.7844     1.5859     4.1435 </r>
       <r>   -21.6939    29.9751     8.7127 </r>
       <r>   -21.6034    43.7824    13.9623 </r>
       <r>   -21.5129     0.0000    14.0000 </r>
       <r>   -21.4224     0.0000    14.0000 </r>
       <r>   -21.3319     0.0000    14.0000 </r>
       <r>   -21.2414     6.3392    14.5737 </r>
       <r>   -21.1509     0.0000    16.0000 </r>
       <r>   -21.0604    20.1359    17.8223 </r>
       <r>   -20.9699    32.8480    20.9727 </r>
       <r>   -20.8794    25.0142    24.2638 </r>
       <r>   -20.7889     0.0000    26.0000 </r>
       <r>   -20.6984    40.5790    29.6724 </r>
       <r>   -20.6079    22.6858    32.0530 </r>
       <r>   -20.5174    43.6130    36.0000 </r>
       <r>   -20.4269    10.8270    36.9798 </r>
       <r>   -20.3365     0.0000    38.0000 </r>
       <r>   -20.2460     0.0000    38.0000 </r>
       <r>   -20.1555     0.0000    38.0000 </r>
       <r>   -20.0650     0.0000    38.0000 </r>
       <r>   -19.9745    17.4284    39.5773 </r>
       <r>   -19.8840    22.0996    42.0000 </r>
       <r>   -19.7935    21.2077    43.9193 </r>
       <r>   -19.7030    87.2778    51.8987 </r>
       <r>   -19.6125    66.1713    59.9885 </r>
       <r>   -19.5220     0.0010    60.0001 </r>
       <r>   -19.4315    22.1691    62.0064 </r>
       <r>   -19.3410    64.7500    67.8662 </r>
       <r>   -19.2505    23.2827    70.1071 </r>
       <r>   -19.1600    20.9165    72.0000 </r>
       <r>   -19.0695    22.0996    74.0000 </r>
       <r>   -18.9790    22.0877    75.9989 </r>
       <r>   -18.8885    23.9980    78.1718 </r>
       <r>   -18.7980    44.1992    84.0000 </r>
       <r>   -18.7075    84.9783    91.6905 </r>
       <r>   -18.6170    21.9490    94.0000 </r>
       <r>   -18.5265     0.0000    94.0000 </r>
       <r>   -18.4360    19.7407    95.7865 </r>
       <r>   -18.3455     0.0000    96.0000 </r>
       <r>   -18.2550     0.0000    96.0000 </r>
       <r>   -18.1645     0.0000    96.0000 </r>
       <r>   -18.0740     0.0000    96.0000 </r>
       <r>   -17.9835     0.0000    96.0000 </r>
       <r>   -17.8930     0.0000    96.0000 </r>
       <r>   -17.8025     0.0000    96.0000 </r>
       <r>   -17.7120     0.0000    96.0000 </r>
       <r>   -17.6215     0.0000    96.0000 </r>
       <r>   -17.5310     0.0000    96.0000 </r>
       <r>   -17.4405     0.0000    96.0000 </r>
       <r>   -17.3500     0.0000    96.0000 </r>
       <r>   -17.2595     0.0000    96.0000 </r>
       <r>   -17.1690     0.0000    96.0000 </r>
       <r>   -17.0785     0.0000    96.0000 </r>
       <r>   -16.9880     0.0000    96.0000 </r>
       <r>   -16.8975     0.0000    96.0000 </r>
       <r>   -16.8070     0.0000    96.0000 </r>
       <r>   -16.7165     0.0000    96.0000 </r>
       <r>   -16.6260     0.0000    96.0000 </r>
       <r>   -16.5355     0.0000    96.0000 </r>
       <r>   -16.4450     0.0000    96.0000 </r>
       <r>   -16.3545     0.0000    96.0000 </r>
       <r>   -16.2640     0.0000    96.0000 </r>
       <r>   -16.1735     0.0000    96.0000 </r>
       <r>   -16.0830     0.0000    96.0000 </r>
       <r>   -15.9925     0.0000    96.0000 </r>
       <r>   -15.9020     0.0000    96.0000 </r>
       <r>   -15.8115     0.0000    96.0000 </r>
       <r>   -15.7210     0.0000    96.0000 </r>
       <r>   -15.6305     0.0000    96.0000 </r>
       <r>   -15.5400     0.0000    96.0000 </r>
       <r>   -15.4495     0.0000    96.0000 </r>
       <r>   -15.3590     0.0000    96.0000 </r>
       <r>   -15.2685     0.0000    96.0000 </r>
       <r>   -15.1780     0.0000    96.0000 </r>
       <r>   -15.0875     0.0000    96.0000 </r>
       <r>   -14.9970     0.0000    96.0000 </r>
       <r>   -14.9065     0.0000    96.0000 </r>
       <r>   -14.8160     0.0000    96.0000 </r>
       <r>   -14.7255     0.0000    96.0000 </r>
       <r>   -14.6350     0.0000    96.0000 </r>
       <r>   -14.5445     0.0000    96.0000 </r>
       <r>   -14.4540     0.0000    96.0000 </r>
       <r>   -14.3635     0.0000    96.0000 </r>
       <r>   -14.2730     0.0000    96.0000 </r>
       <r>   -14.1825     0.0000    96.0000 </r>
       <r>   -14.0920    22.0996    98.0000 </r>
       <r>   -14.0015     0.0000    98.0000 </r>
       <r>   -13.9110     0.0000    98.0000 </r>
       <r>   -13.8205     0.0000    98.0000 </r>
       <r>   -13.7300     0.0000    98.0000 </r>
       <r>   -13.6395     0.0000    98.0000 </r>
       <r>   -13.5490     0.0000    98.0000 </r>
       <r>   -13.4585     0.0000    98.0000 </r>
       <r>   -13.3680     0.0000    98.0000 </r>
       <r>   -13.2775     0.0000    98.0000 </r>
       <r>   -13.1870     9.8780    98.8940 </r>
       <r>   -13.0965    63.5164   105.7482 </r>
       <r>   -13.0060    41.4906   109.7879 </r>
       <r>   -12.9155    66.2670   115.9971 </r>
       <r>   -12.8250     0.0699   116.0063 </r>
       <r>   -12.7345    44.1293   120.0000 </r>
       <r>   -12.6440     0.0000   120.0000 </r>
       <r>   -12.5535    22.0996   122.0000 </r>
       <r>   -12.4630    44.1872   125.9989 </r>
       <r>   -12.3725    18.2740   127.6538 </r>
       <r>   -12.2820    43.7292   131.9575 </r>
       <r>   -12.1915     0.5791   132.0524 </r>
       <r>   -12.1010    21.5205   134.0000 </r>
       <r>   -12.0105     0.0000   134.0000 </r>
       <r>   -11.9200     0.1325   134.0120 </r>
       <r>   -11.8295    44.0667   138.0000 </r>
       <r>   -11.7390    78.3869   145.0940 </r>
       <r>   -11.6485    42.2666   149.8251 </r>
       <r>   -11.5580    22.0016   152.0075 </r>
       <r>   -11.4675    22.0162   154.0000 </r>
       <r>   -11.3770    22.0996   156.0000 </r>
       <r>   -11.2865     0.0000   156.0000 </r>
       <r>   -11.1960    15.5510   157.4074 </r>
       <r>   -11.1055    22.0748   159.9978 </r>
       <r>   -11.0150    44.1302   164.0000 </r>
       <r>   -10.9245    22.2933   166.0175 </r>
       <r>   -10.8340    21.9059   168.0000 </r>
       <r>   -10.7435     0.0000   168.0000 </r>
       <r>   -10.6530    22.0995   170.0000 </r>
       <r>   -10.5625     0.0000   170.0000 </r>
       <r>   -10.4720     0.6123   170.0554 </r>
       <r>   -10.3815    43.5870   174.0000 </r>
       <r>   -10.2910    22.0995   176.0000 </r>
       <r>   -10.2005    41.3739   179.7443 </r>
       <r>   -10.1100     0.0000   180.0000 </r>
       <r>   -10.0195     0.0000   180.0000 </r>
       <r>    -9.9290     0.0000   180.0000 </r>
       <r>    -9.8385    22.0996   182.0000 </r>
       <r>    -9.7480    43.9427   185.9768 </r>
       <r>    -9.6575    44.1030   189.9926 </r>
       <r>    -9.5670    22.1272   192.0025 </r>
       <r>    -9.4765    45.2308   196.0970 </r>
       <r>    -9.3860    20.9838   198.0000 </r>
       <r>    -9.2955    47.5143   202.3000 </r>
       <r>    -9.2050   162.1249   218.6722 </r>
       <r>    -9.1145    55.2373   228.9989 </r>
       <r>    -9.0240    43.7074   235.9995 </r>
       <r>    -8.9335    22.0994   238.0000 </r>
       <r>    -8.8430     8.6060   238.7788 </r>
       <r>    -8.7525    22.0996   242.0000 </r>
       <r>    -8.6620     2.5493   242.2307 </r>
       <r>    -8.5715     0.0000   244.0000 </r>
       <r>    -8.4810    30.1417   246.7278 </r>
       <r>    -8.3905    22.0996   250.0000 </r>
       <r>    -8.3000    22.0977   251.9998 </r>
       <r>    -8.2095    27.3247   254.4729 </r>
       <r>    -8.1190    81.9143   263.5103 </r>
       <r>    -8.0285    19.7266   265.7852 </r>
       <r>    -7.9380    43.4189   269.9294 </r>
       <r>    -7.8475    37.6624   273.4084 </r>
       <r>    -7.7570    66.4852   282.0169 </r>
       <r>    -7.6665   113.5688   292.2948 </r>
       <r>    -7.5760    44.1989   298.0000 </r>
       <r>    -7.4855     0.0000   298.0000 </r>
       <r>    -7.3950    68.0418   304.1577 </r>
       <r>    -7.3045    22.0997   308.0000 </r>
       <r>    -7.2140    22.0995   310.0000 </r>
       <r>    -7.1235     0.0000   310.0000 </r>
       <r>    -7.0330     0.0000   310.0000 </r>
       <r>    -6.9425     0.0000   310.0000 </r>
       <r>    -6.8520     0.0875   310.0079 </r>
       <r>    -6.7615    28.1522   312.5557 </r>
       <r>    -6.6710     0.0000   314.0000 </r>
       <r>    -6.5805    44.1968   317.9998 </r>
       <r>    -6.4900    77.3207   324.9975 </r>
       <r>    -6.3995   125.1505   337.3261 </r>
       <r>    -6.3090    65.1662   343.8975 </r>
       <r>    -6.2185     0.0000   344.0000 </r>
       <r>    -6.1280     0.2171   344.0196 </r>
       <r>    -6.0375    21.8825   346.0000 </r>
       <r>    -5.9470    22.1117   348.0011 </r>
       <r>    -5.8565    79.8071   355.2269 </r>
       <r>    -5.7660    42.8380   359.8768 </r>
       <r>    -5.6756     0.0000   360.0000 </r>
       <r>    -5.5851     0.0000   360.0000 </r>
       <r>    -5.4946    22.0995   362.0000 </r>
       <r>    -5.4041     0.0000   362.0000 </r>
       <r>    -5.3136     0.0000   362.0000 </r>
       <r>    -5.2231    10.8254   362.9797 </r>
       <r>    -5.1326    75.9220   370.8713 </r>
       <r>    -5.0421    22.0990   374.0000 </r>
       <r>    -4.9516    28.8019   376.6066 </r>
       <r>    -4.8611    66.2988   384.0000 </r>
       <r>    -4.7706     0.0000   384.0000 </r>
       <r>    -4.6801    22.0996   386.0000 </r>
       <r>    -4.5896     0.0000   386.0000 </r>
       <r>    -4.4991     0.0000   386.0000 </r>
       <r>    -4.4086     0.0000   386.0000 </r>
       <r>    -4.3181     0.0000   386.0000 </r>
       <r>    -4.2276     0.0000   386.0000 </r>
       <r>    -4.1371     0.0000   386.0000 </r>
       <r>    -4.0466     0.0000   386.0000 </r>
       <r>    -3.9561     0.0000   386.0000 </r>
       <r>    -3.8656     0.0000   386.0000 </r>
       <r>    -3.7751     0.0000   386.0000 </r>
       <r>    -3.6846     0.0000   386.0000 </r>
       <r>    -3.5941     0.0000   386.0000 </r>
       <r>    -3.5036     0.0000   386.0000 </r>
       <r>    -3.4131     0.0000   386.0000 </r>
       <r>    -3.3226     0.0000   386.0000 </r>
       <r>    -3.2321     0.0000   386.0000 </r>
       <r>    -3.1416     0.0000   386.0000 </r>
       <r>    -3.0511     0.0000   386.0000 </r>
       <r>    -2.9606     0.0000   386.0000 </r>
       <r>    -2.8701     0.0000   386.0000 </r>
       <r>    -2.7796     0.0000   386.0000 </r>
       <r>    -2.6891     0.0000   386.0000 </r>
       <r>    -2.5986     0.0000   386.0000 </r>
       <r>    -2.5081     0.0000   386.0000 </r>
       <r>    -2.4176     0.0000   386.0000 </r>
       <r>    -2.3271     0.0000   386.0000 </r>
       <r>    -2.2366     0.0000   386.0000 </r>
       <r>    -2.1461     0.0000   386.0000 </r>
       <r>    -2.0556     0.0000   386.0000 </r>
       <r>    -1.9651     0.0000   386.0000 </r>
       <r>    -1.8746     0.0000   386.0000 </r>
       <r>    -1.7841     0.0000   386.0000 </r>
       <r>    -1.6936     0.0000   386.0000 </r>
       <r>    -1.6031     0.0000   386.0000 </r>
       <r>    -1.5126     0.0000   386.0000 </r>
       <r>    -1.4221     0.0000   386.0000 </r>
       <r>    -1.3316     0.2776   386.0251 </r>
       <r>    -1.2411    21.8220   388.0000 </r>
       <r>    -1.1506    22.0996   390.0000 </r>
       <r>    -1.0601     0.0000   390.0000 </r>
       <r>    -0.9696     0.0000   390.0000 </r>
       <r>    -0.8791     0.0000   390.0000 </r>
       <r>    -0.7886     0.0000   390.0000 </r>
       <r>    -0.6981     0.0000   390.0000 </r>
       <r>    -0.6076     0.0000   390.0000 </r>
       <r>    -0.5171     0.0000   390.0000 </r>
       <r>    -0.4266     0.0000   390.0000 </r>
       <r>    -0.3361     0.0000   390.0000 </r>
       <r>    -0.2456     0.0000   390.0000 </r>
       <r>    -0.1551     0.0000   390.0000 </r>
       <r>    -0.0646     0.0000   390.0000 </r>
       <r>     0.0259     0.0000   390.0000 </r>
       <r>     0.1164    22.0996   392.0000 </r>
       <r>     0.2069    13.5893   393.2298 </r>
       <r>     0.2974    79.5095   401.1956 </r>
       <r>     0.3879    22.6241   406.0475 </r>
       <r>     0.4784    30.9232   410.7985 </r>
       <r>     0.5689    22.0996   414.0000 </r>
       <r>     0.6594    22.0996   416.0000 </r>
       <r>     0.7499    23.1138   418.0918 </r>
       <r>     0.8404   101.0702   429.1469 </r>
       <r>     0.9309    44.0630   434.0000 </r>
       <r>     1.0214    35.0179   437.1691 </r>
       <r>     1.1119    26.2339   440.3741 </r>
       <r>     1.2024     0.0000   442.0000 </r>
       <r>     1.2929     0.0000   442.0000 </r>
       <r>     1.3834     0.0000   442.0000 </r>
       <r>     1.4739     0.0276   442.0025 </r>
       <r>     1.5644    22.0720   444.0000 </r>
       <r>     1.6549     0.1016   444.0092 </r>
       <r>     1.7454   117.7303   454.6637 </r>
       <r>     1.8359    46.2620   460.1867 </r>
       <r>     1.9264   138.5548   472.7258 </r>
       <r>     2.0169    22.9032   476.0727 </r>
       <r>     2.1074    43.7754   480.0344 </r>
       <r>     2.1979    66.2080   488.0000 </r>
       <r>     2.2884     0.0000   488.0000 </r>
       <r>     2.3789     0.0000   488.0000 </r>
       <r>     2.4694     0.0000   488.0000 </r>
       <r>     2.5599     0.0000   488.0000 </r>
       <r>     2.6504     0.0000   488.0000 </r>
       <r>     2.7409     0.0000   488.0000 </r>
       <r>     2.8314     0.0000   488.0000 </r>
       <r>     2.9219     0.0000   488.0000 </r>
       <r>     3.0124     0.0000   488.0000 </r>
       <r>     3.1029     0.0000   488.0000 </r>
       <r>     3.1934     0.0000   488.0000 </r>
       <r>     3.2839     0.0000   488.0000 </r>
       <r>     3.3744     0.0000   488.0000 </r>
      </set>
     </set>
    </array>
   </total>
  </dos>
 </calculation>
 <structure name="finalpos" >
  <crystal>
   <varray name="basis" >
    <v>      17.59966831       0.00000000       0.00000000 </v>
    <v>      -8.79983416      15.24175986       0.00000000 </v>
    <v>       0.00000000       0.00000000      19.92151445 </v>
   </varray>
   <i name="volume">   5343.94461817 </i>
   <varray name="rec_basis" >
    <v>       0.05681925       0.03280461       0.00000000 </v>
    <v>       0.00000000       0.06560922       0.00000000 </v>
    <v>       0.00000000       0.00000000       0.05019699 </v>
   </varray>
  </crystal>
  <varray name="positions" >
   <v>       0.99943010       0.00005992       0.50000000 </v>
   <v>       0.14164706       0.99871895       0.50000000 </v>
   <v>       0.28492260       0.99841663       0.50000000 </v>
   <v>       0.42850047       0.99871895       0.50000000 </v>
   <v>       0.57205839       0.00005992       0.50000000 </v>
   <v>       0.71530655       0.00214292       0.50000000 </v>
   <v>       0.85826494       0.00214292       0.50000000 </v>
   <v>       0.00080792       0.14408264       0.50000000 </v>
   <v>       0.14259355       0.14244783       0.50000000 </v>
   <v>       0.28470221       0.14112972       0.50000000 </v>
   <v>       0.42785608       0.14112972       0.50000000 </v>
   <v>       0.57128286       0.14244783       0.50000000 </v>
   <v>       0.71470329       0.14408264       0.50000000 </v>
   <v>       0.85805263       0.14467669       0.50000000 </v>
   <v>       0.00095476       0.28713011       0.50000000 </v>
   <v>       0.14372552       0.28645370       0.50000000 </v>
   <v>       0.28540977       0.28469374       0.50000000 </v>
   <v>       0.42724431       0.28306005       0.50000000 </v>
   <v>       0.57071254       0.28469374       0.50000000 </v>
   <v>       0.71415674       0.28645370       0.50000000 </v>
   <v>       0.85760392       0.28713011       0.50000000 </v>
   <v>       0.00054479       0.42966101       0.50000000 </v>
   <v>       0.14422690       0.42957551       0.50000000 </v>
   <v>       0.28730213       0.42918005       0.50000000 </v>
   <v>       0.42797654       0.42569726       0.50000000 </v>
   <v>       0.56914930       0.42569726       0.50000000 </v>
   <v>       0.71330650       0.42918005       0.50000000 </v>
   <v>       0.85677719       0.42957551       0.50000000 </v>
   <v>       0.99928255       0.57181462       0.50000000 </v>
   <v>       0.14396064       0.57181462       0.50000000 </v>
   <v>       0.28862787       0.57181625       0.50000000 </v>
   <v>       0.43313209       0.57215564       0.50000000 </v>
   <v>       0.71045212       0.57215564       0.50000000 </v>
   <v>       0.85461695       0.57181625       0.50000000 </v>
   <v>       0.99707234       0.71370518       0.50000000 </v>
   <v>       0.14255519       0.71368182       0.50000000 </v>
   <v>       0.28806142       0.71370518       0.50000000 </v>
   <v>       0.43464191       0.71382540       0.50000000 </v>
   <v>       0.58510826       0.71626937       0.50000000 </v>
   <v>       0.70258968       0.71626937       0.50000000 </v>
   <v>       0.85061206       0.71382540       0.50000000 </v>
   <v>       0.99777175       0.85613493       0.50000000 </v>
   <v>       0.14160898       0.85648107       0.50000000 </v>
   <v>       0.28573247       0.85591288       0.50000000 </v>
   <v>       0.42979175       0.85613493       0.50000000 </v>
   <v>       0.57342541       0.85758690       0.50000000 </v>
   <v>       0.71640633       0.86138410       0.50000000 </v>
   <v>       0.85559006       0.85758690       0.50000000 </v>
   <v>       0.04754270       0.09547788       0.50000000 </v>
   <v>       0.18957833       0.09405657       0.50000000 </v>
   <v>       0.33254182       0.09365506       0.50000000 </v>
   <v>       0.47590681       0.09405657       0.50000000 </v>
   <v>       0.61936376       0.09547788       0.50000000 </v>
   <v>       0.76280004       0.09719274       0.50000000 </v>
   <v>       0.90582126       0.09719274       0.50000000 </v>
   <v>       0.04854983       0.23934281       0.50000000 </v>
   <v>       0.19048138       0.23782962       0.50000000 </v>
   <v>       0.33234878       0.23634667       0.50000000 </v>
   <v>       0.47542646       0.23634667       0.50000000 </v>
   <v>       0.61877681       0.23782962       0.50000000 </v>
   <v>       0.76222155       0.23934281       0.50000000 </v>
   <v>       0.90562797       0.23982737       0.50000000 </v>
   <v>       0.04871288       0.38232824       0.50000000 </v>
   <v>       0.19188940       0.38184213       0.50000000 </v>
   <v>       0.33352206       0.38013969       0.50000000 </v>
   <v>       0.47472270       0.37801683       0.50000000 </v>
   <v>       0.61804620       0.38013969       0.50000000 </v>
   <v>       0.76138130       0.38184213       0.50000000 </v>
   <v>       0.90504393       0.38232824       0.50000000 </v>
   <v>       0.04810654       0.52478452       0.50000000 </v>
   <v>       0.19263929       0.52476864       0.50000000 </v>
   <v>       0.33696521       0.52455433       0.50000000 </v>
   <v>       0.47833704       0.52146721       0.50000000 </v>
   <v>       0.61455874       0.52146721       0.50000000 </v>
   <v>       0.75901769       0.52455433       0.50000000 </v>
   <v>       0.90355792       0.52476864       0.50000000 </v>
   <v>       0.04642473       0.66685228       0.50000000 </v>
   <v>       0.19185612       0.66685228       0.50000000 </v>
   <v>       0.33777931       0.66688794       0.50000000 </v>
   <v>       0.48615700       0.66710760       0.50000000 </v>
   <v>       0.75237918       0.66710760       0.50000000 </v>
   <v>       0.90053720       0.66688794       0.50000000 </v>
   <v>       0.04582562       0.80879365       0.50000000 </v>
   <v>       0.19009580       0.80876303       0.50000000 </v>
   <v>       0.33439660       0.80879365       0.50000000 </v>
   <v>       0.47844872       0.80897069       0.50000000 </v>
   <v>       0.62209487       0.81129474       0.50000000 </v>
   <v>       0.76062845       0.81129474       0.50000000 </v>
   <v>       0.90195054       0.80897069       0.50000000 </v>
   <v>       0.04629157       0.95154386       0.50000000 </v>
   <v>       0.18948291       0.95113037       0.50000000 </v>
   <v>       0.33307603       0.95113037       0.50000000 </v>
   <v>       0.47668087       0.95154386       0.50000000 </v>
   <v>       0.62015751       0.95313740       0.50000000 </v>
   <v>       0.76355772       0.95568687       0.50000000 </v>
   <v>       0.90440847       0.95313740       0.50000000 </v>
   <v>       0.56830873       0.56518888       0.50000000 </v>
  </varray>
 </structure>
</modeling>
