<?xml version="1.0" encoding="ISO-8859-1"?>
<modeling>
 <generator>
  <i name="program" type="string">vasp </i>
  <i name="version" type="string">5.4.4.18Apr17-6-g9f103f2a35  </i>
  <i name="subversion" type="string">(build Oct 18 2020 22:16:12) gamma-only         parallel </i>
  <i name="platform" type="string">UA-vaughan-2020a </i>
  <i name="date" type="string">2023 03 21 </i>
  <i name="time" type="string">18:38:39 </i>
 </generator>
 <incar>
  <i type="string" name="PREC">accurate</i>
  <i type="int" name="IALGO">    38</i>
  <i type="logical" name="ADDGRID"> T  </i>
  <i type="int" name="NELMIN">     5</i>
  <i type="int" name="IBRION">    -1</i>
  <i name="EDIFF">      0.00000001</i>
  <i name="EDIFFG">     -0.00000001</i>
  <i type="int" name="NSW">     0</i>
  <i type="int" name="ISIF">     2</i>
  <i name="ENCUT">    500.00000000</i>
  <i type="logical" name="LREAL"> F  </i>
  <i type="int" name="ISMEAR">     0</i>
  <i name="SIGMA">      0.01000000</i>
  <i type="logical" name="LWAVE"> F  </i>
  <i type="logical" name="LCHARG"> F  </i>
  <v type="int" name="KPOINT_BSE">    -1     0     0     0</v>
 </incar>
 <structure name="primitive_cell" >
  <crystal>
   <varray name="basis" >
    <v>      17.59966831       0.00000000       0.00000000 </v>
    <v>      -8.79983416      15.24175986       0.00000000 </v>
    <v>       0.00000000       0.00000000      19.92151445 </v>
   </varray>
   <i name="volume">   5343.94461817 </i>
   <varray name="rec_basis" >
    <v>       0.05681925       0.03280461       0.00000000 </v>
    <v>       0.00000000       0.06560922       0.00000000 </v>
    <v>       0.00000000       0.00000000       0.05019699 </v>
   </varray>
  </crystal>
  <varray name="positions" >
   <v>      -0.00056990       0.00005992      -0.50000000 </v>
   <v>      -0.09559153      -0.04686260      -0.50000000 </v>
   <v>       0.04629157      -0.04845614      -0.50000000 </v>
   <v>       0.04754270       0.09547788      -0.50000000 </v>
   <v>      -0.14173506       0.00214292      -0.50000000 </v>
   <v>       0.14259355       0.14244783      -0.50000000 </v>
   <v>       0.14164706      -0.00128105      -0.50000000 </v>
   <v>      -0.00222825      -0.14386507      -0.50000000 </v>
   <v>      -0.14440994      -0.14241310      -0.50000000 </v>
   <v>       0.00080792       0.14408264      -0.50000000 </v>
   <v>       0.18957833       0.09405657      -0.50000000 </v>
   <v>      -0.09417874       0.09719274      -0.50000000 </v>
   <v>      -0.09804946      -0.19102931      -0.50000000 </v>
   <v>      -0.23644228      -0.04431313      -0.50000000 </v>
   <v>      -0.23937155      -0.18870526      -0.50000000 </v>
   <v>       0.19048138       0.23782962      -0.50000000 </v>
   <v>       0.04582562      -0.19120635      -0.50000000 </v>
   <v>       0.18948291      -0.04886963      -0.50000000 </v>
   <v>       0.04854983       0.23934281      -0.50000000 </v>
   <v>      -0.28359367      -0.13861590      -0.50000000 </v>
   <v>       0.28470221       0.14112972      -0.50000000 </v>
   <v>      -0.14194737       0.14467669      -0.50000000 </v>
   <v>      -0.14938794      -0.28617460      -0.50000000 </v>
   <v>       0.14160898      -0.14408712      -0.50000000 </v>
   <v>       0.14372552       0.28645370      -0.50000000 </v>
   <v>       0.28540977       0.28412554      -0.50000000 </v>
   <v>      -0.28469345       0.00214292      -0.50000000 </v>
   <v>      -0.00292766      -0.28629482      -0.50000000 </v>
   <v>       0.00095476       0.28713011      -0.50000000 </v>
   <v>       0.28492260      -0.00158337      -0.50000000 </v>
   <v>      -0.29741032      -0.28373063      -0.50000000 </v>
   <v>      -0.09946280      -0.33311206      -0.50000000 </v>
   <v>       0.33234878       0.23634667      -0.50000000 </v>
   <v>      -0.23719996       0.09719274      -0.50000000 </v>
   <v>       0.33254182       0.09365506      -0.50000000 </v>
   <v>      -0.09437203       0.23982737      -0.50000000 </v>
   <v>      -0.24762082      -0.33289240      -0.50000000 </v>
   <v>      -0.37790513      -0.18870526      -0.50000000 </v>
   <v>       0.19188940       0.38184213      -0.50000000 </v>
   <v>       0.19009580      -0.19123697      -0.50000000 </v>
   <v>      -0.37984249      -0.04686260      -0.50000000 </v>
   <v>       0.04642473      -0.33314772      -0.50000000 </v>
   <v>       0.33352206       0.38013969      -0.50000000 </v>
   <v>       0.04871288       0.38232824      -0.50000000 </v>
   <v>       0.33307603      -0.04886963      -0.50000000 </v>
   <v>      -0.41489174      -0.28373063      -0.50000000 </v>
   <v>      -0.42657459      -0.14241310      -0.50000000 </v>
   <v>       0.42724431       0.28306005      -0.50000000 </v>
   <v>      -0.14538305      -0.42818375      -0.50000000 </v>
   <v>      -0.28529671       0.14408264      -0.50000000 </v>
   <v>      -0.28954788      -0.42784436      -0.50000000 </v>
   <v>       0.42785608       0.14112972      -0.50000000 </v>
   <v>      -0.14239608       0.28713011      -0.50000000 </v>
   <v>       0.14422690       0.42957551      -0.50000000 </v>
   <v>       0.28730213       0.42918005      -0.50000000 </v>
   <v>       0.14255519      -0.28631818      -0.50000000 </v>
   <v>       0.28573247      -0.14408712      -0.50000000 </v>
   <v>      -0.24098231      -0.47544567      -0.50000000 </v>
   <v>       0.47542646       0.23634667      -0.50000000 </v>
   <v>      -0.23777845       0.23934281      -0.50000000 </v>
   <v>       0.42797654       0.42569726      -0.50000000 </v>
   <v>      -0.42794161       0.00005992      -0.50000000 </v>
   <v>      -0.00071745      -0.42818538      -0.50000000 </v>
   <v>       0.00054479       0.42966101      -0.50000000 </v>
   <v>       0.42850047      -0.00128105      -0.50000000 </v>
   <v>      -0.43169127      -0.43481112      -0.50000000 </v>
   <v>       0.47472270       0.37801683      -0.50000000 </v>
   <v>      -0.09644208      -0.47523136      -0.50000000 </v>
   <v>      -0.38063624       0.09547788      -0.50000000 </v>
   <v>       0.47590681       0.09405657      -0.50000000 </v>
   <v>      -0.09495607       0.38232824      -0.50000000 </v>
   <v>      -0.38544126      -0.47853279      -0.50000000 </v>
   <v>       0.48615700      -0.33289240      -0.50000000 </v>
   <v>       0.47844872      -0.19102931      -0.50000000 </v>
   <v>       0.19263929      -0.47523136      -0.50000000 </v>
   <v>       0.33696521      -0.47544567      -0.50000000 </v>
   <v>       0.19185612      -0.33314772      -0.50000000 </v>
   <v>       0.33439660      -0.19120635      -0.50000000 </v>
   <v>       0.43464191      -0.28617460      -0.50000000 </v>
   <v>      -0.28669350       0.42918005      -0.50000000 </v>
   <v>      -0.42928746       0.28469374      -0.50000000 </v>
   <v>      -0.28584326       0.28645370      -0.50000000 </v>
   <v>       0.28862787      -0.42818375      -0.50000000 </v>
   <v>       0.28806142      -0.28629482      -0.50000000 </v>
   <v>       0.47668087      -0.04845614      -0.50000000 </v>
   <v>       0.47833704      -0.47853279      -0.50000000 </v>
   <v>       0.04810654      -0.47521548      -0.50000000 </v>
   <v>       0.43313209      -0.42784436      -0.50000000 </v>
   <v>       0.42979175      -0.14386507      -0.50000000 </v>
   <v>      -0.43085070       0.42569726      -0.50000000 </v>
   <v>      -0.14322281       0.42957551      -0.50000000 </v>
   <v>      -0.42871714       0.14244783      -0.50000000 </v>
   <v>       0.14396064      -0.42818538      -0.50000000 </v>
   <v>      -0.23861870       0.38184213      -0.50000000 </v>
   <v>      -0.38122319       0.23782962      -0.50000000 </v>
   <v>      -0.38195380       0.38013969      -0.50000000 </v>
   <v>       0.33777931      -0.33311206      -0.50000000 </v>
  </varray>
 </structure>
 <varray name="primitive_index" >
  <v type="int" >        1 </v>
  <v type="int" >       96 </v>
  <v type="int" >       90 </v>
  <v type="int" >       49 </v>
  <v type="int" >        7 </v>
  <v type="int" >        9 </v>
  <v type="int" >        2 </v>
  <v type="int" >       42 </v>
  <v type="int" >       48 </v>
  <v type="int" >        8 </v>
  <v type="int" >       50 </v>
  <v type="int" >       55 </v>
  <v type="int" >       89 </v>
  <v type="int" >       95 </v>
  <v type="int" >       88 </v>
  <v type="int" >       57 </v>
  <v type="int" >       83 </v>
  <v type="int" >       91 </v>
  <v type="int" >       56 </v>
  <v type="int" >       47 </v>
  <v type="int" >       10 </v>
  <v type="int" >       14 </v>
  <v type="int" >       41 </v>
  <v type="int" >       43 </v>
  <v type="int" >       16 </v>
  <v type="int" >       17 </v>
  <v type="int" >        6 </v>
  <v type="int" >       35 </v>
  <v type="int" >       15 </v>
  <v type="int" >        3 </v>
  <v type="int" >       40 </v>
  <v type="int" >       82 </v>
  <v type="int" >       58 </v>
  <v type="int" >       54 </v>
  <v type="int" >       51 </v>
  <v type="int" >       62 </v>
  <v type="int" >       81 </v>
  <v type="int" >       87 </v>
  <v type="int" >       64 </v>
  <v type="int" >       84 </v>
  <v type="int" >       94 </v>
  <v type="int" >       77 </v>
  <v type="int" >       65 </v>
  <v type="int" >       63 </v>
  <v type="int" >       92 </v>
  <v type="int" >       39 </v>
  <v type="int" >       46 </v>
  <v type="int" >       18 </v>
  <v type="int" >       34 </v>
  <v type="int" >       13 </v>
  <v type="int" >       33 </v>
  <v type="int" >       11 </v>
  <v type="int" >       21 </v>
  <v type="int" >       23 </v>
  <v type="int" >       24 </v>
  <v type="int" >       36 </v>
  <v type="int" >       44 </v>
  <v type="int" >       75 </v>
  <v type="int" >       59 </v>
  <v type="int" >       61 </v>
  <v type="int" >       25 </v>
  <v type="int" >        5 </v>
  <v type="int" >       29 </v>
  <v type="int" >       22 </v>
  <v type="int" >        4 </v>
  <v type="int" >       97 </v>
  <v type="int" >       66 </v>
  <v type="int" >       76 </v>
  <v type="int" >       53 </v>
  <v type="int" >       52 </v>
  <v type="int" >       69 </v>
  <v type="int" >       74 </v>
  <v type="int" >       80 </v>
  <v type="int" >       86 </v>
  <v type="int" >       71 </v>
  <v type="int" >       72 </v>
  <v type="int" >       78 </v>
  <v type="int" >       85 </v>
  <v type="int" >       38 </v>
  <v type="int" >       27 </v>
  <v type="int" >       19 </v>
  <v type="int" >       20 </v>
  <v type="int" >       31 </v>
  <v type="int" >       37 </v>
  <v type="int" >       93 </v>
  <v type="int" >       73 </v>
  <v type="int" >       70 </v>
  <v type="int" >       32 </v>
  <v type="int" >       45 </v>
  <v type="int" >       26 </v>
  <v type="int" >       28 </v>
  <v type="int" >       12 </v>
  <v type="int" >       30 </v>
  <v type="int" >       68 </v>
  <v type="int" >       60 </v>
  <v type="int" >       67 </v>
  <v type="int" >       79 </v>
 </varray>
 <kpoints>
  <generation param="Gamma">
   <v type="int" name="divisions">       1        1        1 </v>
   <v name="usershift">      0.00000000       0.00000000       0.00000000 </v>
   <v name="genvec1">      1.00000000      -0.00000000       0.00000000 </v>
   <v name="genvec2">      0.00000000       1.00000000       0.00000000 </v>
   <v name="genvec3">      0.00000000       0.00000000       1.00000000 </v>
   <v name="shift">      0.00000000       0.00000000       0.00000000 </v>
  </generation>
  <varray name="kpointlist" >
   <v>       0.00000000       0.00000000       0.00000000 </v>
  </varray>
  <varray name="weights" >
   <v>       1.00000000 </v>
  </varray>
 </kpoints>
 <parameters>
  <separator name="general" >
   <i type="string" name="SYSTEM">unknown system</i>
   <i type="logical" name="LCOMPAT"> F  </i>
  </separator>
  <separator name="electronic" >
   <i type="string" name="PREC">accura</i>
   <i name="ENMAX">    500.00000000</i>
   <i name="ENAUG">    644.87300000</i>
   <i name="EDIFF">      0.00000001</i>
   <i type="int" name="IALGO">    38</i>
   <i type="int" name="IWAVPR">    10</i>
   <i type="int" name="NBANDS">   244</i>
   <i name="NELECT">    388.00000000</i>
   <i type="int" name="TURBO">     0</i>
   <i type="int" name="IRESTART">     0</i>
   <i type="int" name="NREBOOT">     0</i>
   <i type="int" name="NMIN">     0</i>
   <i name="EREF">      0.00000000</i>
   <separator name="electronic smearing" >
    <i type="int" name="ISMEAR">     0</i>
    <i name="SIGMA">      0.01000000</i>
    <i name="KSPACING">      0.50000000</i>
    <i type="logical" name="KGAMMA"> T  </i>
   </separator>
   <separator name="electronic projectors" >
    <i type="logical" name="LREAL"> F  </i>
    <v name="ROPT">      0.00000000      0.00000000      0.00000000</v>
    <i type="int" name="LMAXPAW">  -100</i>
    <i type="int" name="LMAXMIX">     2</i>
    <i type="logical" name="NLSPLINE"> F  </i>
   </separator>
   <separator name="electronic startup" >
    <i type="int" name="ISTART">     0</i>
    <i type="int" name="ICHARG">     2</i>
    <i type="int" name="INIWAV">     1</i>
   </separator>
   <separator name="electronic spin" >
    <i type="int" name="ISPIN">     1</i>
    <i type="logical" name="LNONCOLLINEAR"> F  </i>
    <v name="MAGMOM">      1.00000000      1.00000000      1.00000000      1.00000000      1.00000000      1.00000000      1.00000000      1.00000000      1.00000000      1.00000000      1.00000000      1.00000000      1.00000000      1.00000000      1.00000000      1.00000000      1.00000000      1.00000000      1.00000000      1.00000000
      1.00000000      1.00000000      1.00000000      1.00000000      1.00000000      1.00000000      1.00000000      1.00000000      1.00000000      1.00000000      1.00000000      1.00000000      1.00000000      1.00000000      1.00000000      1.00000000      1.00000000      1.00000000      1.00000000      1.00000000
      1.00000000      1.00000000      1.00000000      1.00000000      1.00000000      1.00000000      1.00000000      1.00000000      1.00000000      1.00000000      1.00000000      1.00000000      1.00000000      1.00000000      1.00000000      1.00000000      1.00000000      1.00000000      1.00000000      1.00000000
      1.00000000      1.00000000      1.00000000      1.00000000      1.00000000      1.00000000      1.00000000      1.00000000      1.00000000      1.00000000      1.00000000      1.00000000      1.00000000      1.00000000      1.00000000      1.00000000      1.00000000      1.00000000      1.00000000      1.00000000
      1.00000000      1.00000000      1.00000000      1.00000000      1.00000000      1.00000000      1.00000000      1.00000000      1.00000000      1.00000000      1.00000000      1.00000000      1.00000000      1.00000000      1.00000000      1.00000000      1.00000000</v>
    <i name="NUPDOWN">     -1.00000000</i>
    <i type="logical" name="LSORBIT"> F  </i>
    <v name="SAXIS">      0.00000000      0.00000000      1.00000000</v>
    <i type="logical" name="LSPIRAL"> F  </i>
    <v name="QSPIRAL">      0.00000000      0.00000000      0.00000000</v>
    <i type="logical" name="LZEROZ"> F  </i>
   </separator>
   <separator name="electronic exchange-correlation" >
    <i type="logical" name="LASPH"> F  </i>
    <i type="logical" name="LMETAGGA"> F  </i>
   </separator>
   <separator name="electronic convergence" >
    <i type="int" name="NELM">    60</i>
    <i type="int" name="NELMDL">    -5</i>
    <i type="int" name="NELMIN">     5</i>
    <i name="ENINI">    500.00000000</i>
    <separator name="electronic convergence detail" >
     <i type="logical" name="LDIAG"> T  </i>
     <i type="logical" name="LSUBROT"> F  </i>
     <i name="WEIMIN">      0.00000000</i>
     <i name="EBREAK">      0.00000000</i>
     <i name="DEPER">      0.30000000</i>
     <i type="int" name="NRMM">     4</i>
     <i name="TIME">      0.40000000</i>
    </separator>
   </separator>
   <separator name="electronic mixer" >
    <i name="AMIX">      0.40000000</i>
    <i name="BMIX">      1.00000000</i>
    <i name="AMIN">      0.10000000</i>
    <i name="AMIX_MAG">      1.60000000</i>
    <i name="BMIX_MAG">      1.00000000</i>
    <separator name="electronic mixer details" >
     <i type="int" name="IMIX">     4</i>
     <i type="logical" name="MIXFIRST"> F  </i>
     <i type="int" name="MAXMIX">   -45</i>
     <i name="WC">    100.00000000</i>
     <i type="int" name="INIMIX">     1</i>
     <i type="int" name="MIXPRE">     1</i>
     <i type="int" name="MREMOVE">     5</i>
    </separator>
   </separator>
   <separator name="electronic dipolcorrection" >
    <i type="logical" name="LDIPOL"> F  </i>
    <i type="logical" name="LMONO"> F  </i>
    <i type="int" name="IDIPOL">     0</i>
    <i name="EPSILON">      1.00000000</i>
    <v name="DIPOL">   -100.00000000   -100.00000000   -100.00000000</v>
    <i name="EFIELD">      0.00000000</i>
   </separator>
  </separator>
  <separator name="grids" >
   <i type="int" name="NGX">   128</i>
   <i type="int" name="NGY">   128</i>
   <i type="int" name="NGZ">   150</i>
   <i type="int" name="NGXF">   256</i>
   <i type="int" name="NGYF">   256</i>
   <i type="int" name="NGZF">   300</i>
   <i type="logical" name="ADDGRID"> T  </i>
  </separator>
  <separator name="ionic" >
   <i type="int" name="NSW">     0</i>
   <i type="int" name="IBRION">    -1</i>
   <i type="int" name="MDALGO">     0</i>
   <i type="int" name="ISIF">     2</i>
   <i name="PSTRESS">      0.00000000</i>
   <i name="EDIFFG">     -0.00000001</i>
   <i type="int" name="NFREE">     0</i>
   <i name="POTIM">      0.50000000</i>
   <i name="SMASS">     -3.00000000</i>
   <i name="SCALEE">      1.00000000</i>
  </separator>
  <separator name="ionic md" >
   <i name="TEBEG">      0.00010000</i>
   <i name="TEEND">      0.00010000</i>
   <i type="int" name="NBLOCK">     1</i>
   <i type="int" name="KBLOCK">     1</i>
   <i type="int" name="NPACO">   256</i>
   <i name="APACO">     16.00000000</i>
  </separator>
  <separator name="symmetry" >
   <i type="int" name="ISYM">     2</i>
   <i name="SYMPREC">      0.00001000</i>
  </separator>
  <separator name="dos" >
   <i type="int" name="LORBIT">     0</i>
   <v name="RWIGS">     -1.00000000     -1.00000000     -1.00000000</v>
   <i type="int" name="NEDOS">   301</i>
   <i name="EMIN">     10.00000000</i>
   <i name="EMAX">    -10.00000000</i>
   <i name="EFERMI">      0.00000000</i>
  </separator>
  <separator name="writing" >
   <i type="int" name="NWRITE">     2</i>
   <i type="logical" name="LWAVE"> F  </i>
   <i type="logical" name="LDOWNSAMPLE"> F  </i>
   <i type="logical" name="LCHARG"> F  </i>
   <i type="logical" name="LPARD"> F  </i>
   <i type="logical" name="LVTOT"> F  </i>
   <i type="logical" name="LVHAR"> F  </i>
   <i type="logical" name="LELF"> F  </i>
   <i type="logical" name="LOPTICS"> F  </i>
   <v name="STM">      0.00000000      0.00000000      0.00000000      0.00000000      0.00000000      0.00000000      0.00000000</v>
  </separator>
  <separator name="performance" >
   <i type="int" name="NPAR">     4</i>
   <i type="int" name="NSIM">     4</i>
   <i type="int" name="NBLK">    -1</i>
   <i type="logical" name="LPLANE"> T  </i>
   <i type="logical" name="LSCALAPACK"> T  </i>
   <i type="logical" name="LSCAAWARE"> F  </i>
   <i type="logical" name="LSCALU"> F  </i>
   <i type="logical" name="LASYNC"> F  </i>
   <i type="logical" name="LORBITALREAL"> F  </i>
  </separator>
  <separator name="miscellaneous" >
   <i type="int" name="IDIOT">     3</i>
   <i type="int" name="ISPECIAL">     0</i>
   <i type="logical" name="LMUSIC"> F  </i>
   <v name="POMASS">     10.81100000     14.00100000     12.01100000</v>
   <v name="DARWINR">      0.00000000      0.00000000      0.00000000</v>
   <v name="DARWINV">      1.00000000      1.00000000      1.00000000</v>
   <i type="logical" name="LCORR"> T  </i>
  </separator>
  <i type="logical" name="GGA_COMPAT"> T  </i>
  <i type="logical" name="LBERRY"> F  </i>
  <i type="int" name="ICORELEVEL">     0</i>
  <i type="logical" name="LDAU"> F  </i>
  <i type="int" name="I_CONSTRAINED_M">     0</i>
  <separator name="electronic exchange-correlation" >
   <i type="string" name="GGA">--</i>
   <i type="int" name="VOSKOWN">     0</i>
   <i type="logical" name="LHFCALC"> F  </i>
   <i type="string" name="PRECFOCK"></i>
   <i type="logical" name="LSYMGRAD"> F  </i>
   <i type="logical" name="LHFONE"> F  </i>
   <i type="logical" name="LRHFCALC"> F  </i>
   <i type="logical" name="LTHOMAS"> F  </i>
   <i type="logical" name="LMODELHF"> F  </i>
   <i name="ENCUT4O">     -1.00000000</i>
   <i type="int" name="EXXOEP">     0</i>
   <i type="int" name="FOURORBIT">     0</i>
   <i name="AEXX">      0.00000000</i>
   <i name="HFALPHA">      0.00000000</i>
   <i name="MCALPHA">      0.00000000</i>
   <i name="ALDAX">      1.00000000</i>
   <i name="AGGAX">      1.00000000</i>
   <i name="ALDAC">      1.00000000</i>
   <i name="AGGAC">      1.00000000</i>
   <i type="int" name="NKREDX">     1</i>
   <i type="int" name="NKREDY">     1</i>
   <i type="int" name="NKREDZ">     1</i>
   <i type="logical" name="SHIFTRED"> F  </i>
   <i type="logical" name="ODDONLY"> F  </i>
   <i type="logical" name="EVENONLY"> F  </i>
   <i type="int" name="LMAXFOCK">     0</i>
   <i type="int" name="NMAXFOCKAE">     0</i>
   <i type="logical" name="LFOCKAEDFT"> F  </i>
   <i name="HFSCREEN">      0.00000000</i>
   <i name="HFSCREENC">      0.00000000</i>
   <i type="int" name="NBANDSGWLOW">     0</i>
  </separator>
  <separator name="vdW DFT" >
   <i type="logical" name="LUSE_VDW"> F  </i>
   <i name="Zab_VDW">     -0.84910000</i>
   <i name="PARAM1">      0.12340000</i>
   <i name="PARAM2">      1.00000000</i>
   <i name="PARAM3">      0.00000000</i>
  </separator>
  <separator name="model GW" >
   <i type="int" name="MODEL_GW">     0</i>
   <i name="MODEL_EPS0">     33.05532754</i>
   <i name="MODEL_ALPHA">      1.00000000</i>
  </separator>
  <separator name="linear response parameters" >
   <i type="logical" name="LEPSILON"> F  </i>
   <i type="logical" name="LRPA"> F  </i>
   <i type="logical" name="LNABLA"> F  </i>
   <i type="logical" name="LVEL"> F  </i>
   <i type="int" name="KINTER">     0</i>
   <i name="CSHIFT">      0.10000000</i>
   <i name="OMEGAMAX">     -1.00000000</i>
   <i name="DEG_THRESHOLD">      0.00200000</i>
   <i name="RTIME">     -0.10000000</i>
   <i name="WPLASMAI">      0.00000000</i>
   <v name="DFIELD">      0.00000000      0.00000000      0.00000000</v>
   <v name="WPLASMA">      0.00000000      0.00000000      0.00000000      0.00000000      0.00000000      0.00000000      0.00000000      0.00000000      0.00000000</v>
  </separator>
  <separator name="orbital magnetization" >
   <i type="logical" name="NUCIND"> F  </i>
   <v name="MAGPOS">      0.00000000      0.00000000      0.00000000</v>
   <i type="logical" name="LNICSALL"> T  </i>
   <i type="logical" name="ORBITALMAG"> F  </i>
   <i type="logical" name="LMAGBLOCH"> F  </i>
   <i type="logical" name="LCHIMAG"> F  </i>
   <i type="logical" name="LGAUGE"> T  </i>
   <i type="int" name="MAGATOM">     0</i>
   <v name="MAGDIPOL">      0.00000000      0.00000000      0.00000000</v>
   <v name="AVECCONST">      0.00000000      0.00000000      0.00000000</v>
  </separator>
  <separator name="response functions" >
   <i type="logical" name="LADDER"> F  </i>
   <i type="logical" name="LRPAFORCE"> F  </i>
   <i type="logical" name="LFXC"> F  </i>
   <i type="logical" name="LHARTREE"> T  </i>
   <i type="int" name="IBSE">     0</i>
   <v type="int" name="KPOINT">    -1     0     0     0</v>
   <i type="logical" name="LTCTE"> F  </i>
   <i type="logical" name="LTETE"> F  </i>
   <i type="logical" name="LTRIPLET"> F  </i>
   <i type="logical" name="LFXCEPS"> F  </i>
   <i type="logical" name="LFXHEG"> F  </i>
   <i type="int" name="NATURALO">     2</i>
   <i type="logical" name="L2ORDER"> F  </i>
   <i type="logical" name="LMP2LT"> F  </i>
   <i type="logical" name="LUSEW"> F  </i>
   <i name="ENCUTGW">     -2.00000000</i>
   <i name="ENCUTGWSOFT">     -2.00000000</i>
   <i name="ENCUTLF">     -1.00000000</i>
   <i type="int" name="LMAXMP2">    -1</i>
   <i name="SCISSOR">      0.00000000</i>
   <i type="int" name="NOMEGA">     0</i>
   <i type="int" name="NOMEGAR">     0</i>
   <i type="int" name="NBANDSGW">    -1</i>
   <i type="int" name="NBANDSO">    -1</i>
   <i type="int" name="NBANDSV">    -1</i>
   <i type="int" name="NELM">     1</i>
   <i type="int" name="NELMHF">     1</i>
   <i type="int" name="DIM">     3</i>
   <i type="int" name="ANTIRES">     0</i>
   <i name="OMEGAMAX">    -30.00000000</i>
   <i name="OMEGAMIN">    -30.00000000</i>
   <i name="OMEGATL">   -200.00000000</i>
   <i type="int" name="OMEGAGRID">   140</i>
   <i name="CSHIFT">     -0.10000000</i>
   <i type="logical" name="SELFENERGY"> F  </i>
   <i type="logical" name="LSPECTRAL"> F  </i>
   <i type="logical" name="LSPECTRALGW"> F  </i>
   <i type="logical" name="LSINGLES"> F  </i>
   <i type="logical" name="LFERMIGW"> F  </i>
   <i type="logical" name="ODDONLYGW"> F  </i>
   <i type="logical" name="EVENONLYGW"> F  </i>
   <i type="int" name="NKREDLFX">     1</i>
   <i type="int" name="NKREDLFY">     1</i>
   <i type="int" name="NKREDLFZ">     1</i>
   <i type="int" name="MAXMEM">  2800</i>
   <i type="int" name="TELESCOPE">     0</i>
   <i type="int" name="TAUPAR">     1</i>
   <i type="int" name="OMEGAPAR">    -1</i>
   <i name="LAMBDA">      1.00000000</i>
  </separator>
  <separator name="External order field" >
   <i name="OFIELD_KAPPA">      0.00000000</i>
   <v name="OFIELD_K">      0.00000000      0.00000000      0.00000000</v>
   <i name="OFIELD_Q6_NEAR">      0.00000000</i>
   <i name="OFIELD_Q6_FAR">      0.00000000</i>
   <i name="OFIELD_A">      0.00000000</i>
  </separator>
 </parameters>
 <atominfo>
  <atoms>      97 </atoms>
  <types>       3 </types>
  <array name="atoms" >
   <dimension dim="1">ion</dimension>
   <field type="string">element</field>
   <field type="int">atomtype</field>
   <set>
    <rc><c>B </c><c>   1</c></rc>
    <rc><c>B </c><c>   1</c></rc>
    <rc><c>B </c><c>   1</c></rc>
    <rc><c>B </c><c>   1</c></rc>
    <rc><c>B </c><c>   1</c></rc>
    <rc><c>B </c><c>   1</c></rc>
    <rc><c>B </c><c>   1</c></rc>
    <rc><c>B </c><c>   1</c></rc>
    <rc><c>B </c><c>   1</c></rc>
    <rc><c>B </c><c>   1</c></rc>
    <rc><c>B </c><c>   1</c></rc>
    <rc><c>B </c><c>   1</c></rc>
    <rc><c>B </c><c>   1</c></rc>
    <rc><c>B </c><c>   1</c></rc>
    <rc><c>B </c><c>   1</c></rc>
    <rc><c>B </c><c>   1</c></rc>
    <rc><c>B </c><c>   1</c></rc>
    <rc><c>B </c><c>   1</c></rc>
    <rc><c>B </c><c>   1</c></rc>
    <rc><c>B </c><c>   1</c></rc>
    <rc><c>B </c><c>   1</c></rc>
    <rc><c>B </c><c>   1</c></rc>
    <rc><c>B </c><c>   1</c></rc>
    <rc><c>B </c><c>   1</c></rc>
    <rc><c>B </c><c>   1</c></rc>
    <rc><c>B </c><c>   1</c></rc>
    <rc><c>B </c><c>   1</c></rc>
    <rc><c>B </c><c>   1</c></rc>
    <rc><c>B </c><c>   1</c></rc>
    <rc><c>B </c><c>   1</c></rc>
    <rc><c>B </c><c>   1</c></rc>
    <rc><c>B </c><c>   1</c></rc>
    <rc><c>B </c><c>   1</c></rc>
    <rc><c>B </c><c>   1</c></rc>
    <rc><c>B </c><c>   1</c></rc>
    <rc><c>B </c><c>   1</c></rc>
    <rc><c>B </c><c>   1</c></rc>
    <rc><c>B </c><c>   1</c></rc>
    <rc><c>B </c><c>   1</c></rc>
    <rc><c>B </c><c>   1</c></rc>
    <rc><c>B </c><c>   1</c></rc>
    <rc><c>B </c><c>   1</c></rc>
    <rc><c>B </c><c>   1</c></rc>
    <rc><c>B </c><c>   1</c></rc>
    <rc><c>B </c><c>   1</c></rc>
    <rc><c>B </c><c>   1</c></rc>
    <rc><c>B </c><c>   1</c></rc>
    <rc><c>B </c><c>   1</c></rc>
    <rc><c>N </c><c>   2</c></rc>
    <rc><c>N </c><c>   2</c></rc>
    <rc><c>N </c><c>   2</c></rc>
    <rc><c>N </c><c>   2</c></rc>
    <rc><c>N </c><c>   2</c></rc>
    <rc><c>N </c><c>   2</c></rc>
    <rc><c>N </c><c>   2</c></rc>
    <rc><c>N </c><c>   2</c></rc>
    <rc><c>N </c><c>   2</c></rc>
    <rc><c>N </c><c>   2</c></rc>
    <rc><c>N </c><c>   2</c></rc>
    <rc><c>N </c><c>   2</c></rc>
    <rc><c>N </c><c>   2</c></rc>
    <rc><c>N </c><c>   2</c></rc>
    <rc><c>N </c><c>   2</c></rc>
    <rc><c>N </c><c>   2</c></rc>
    <rc><c>N </c><c>   2</c></rc>
    <rc><c>N </c><c>   2</c></rc>
    <rc><c>N </c><c>   2</c></rc>
    <rc><c>N </c><c>   2</c></rc>
    <rc><c>N </c><c>   2</c></rc>
    <rc><c>N </c><c>   2</c></rc>
    <rc><c>N </c><c>   2</c></rc>
    <rc><c>N </c><c>   2</c></rc>
    <rc><c>N </c><c>   2</c></rc>
    <rc><c>N </c><c>   2</c></rc>
    <rc><c>N </c><c>   2</c></rc>
    <rc><c>N </c><c>   2</c></rc>
    <rc><c>N </c><c>   2</c></rc>
    <rc><c>N </c><c>   2</c></rc>
    <rc><c>N </c><c>   2</c></rc>
    <rc><c>N </c><c>   2</c></rc>
    <rc><c>N </c><c>   2</c></rc>
    <rc><c>N </c><c>   2</c></rc>
    <rc><c>N </c><c>   2</c></rc>
    <rc><c>N </c><c>   2</c></rc>
    <rc><c>N </c><c>   2</c></rc>
    <rc><c>N </c><c>   2</c></rc>
    <rc><c>N </c><c>   2</c></rc>
    <rc><c>N </c><c>   2</c></rc>
    <rc><c>N </c><c>   2</c></rc>
    <rc><c>N </c><c>   2</c></rc>
    <rc><c>N </c><c>   2</c></rc>
    <rc><c>N </c><c>   2</c></rc>
    <rc><c>N </c><c>   2</c></rc>
    <rc><c>N </c><c>   2</c></rc>
    <rc><c>N </c><c>   2</c></rc>
    <rc><c>N </c><c>   2</c></rc>
    <rc><c>C </c><c>   3</c></rc>
   </set>
  </array>
  <array name="atomtypes" >
   <dimension dim="1">type</dimension>
   <field type="int">atomspertype</field>
   <field type="string">element</field>
   <field>mass</field>
   <field>valence</field>
   <field type="string">pseudopotential</field>
   <set>
    <rc><c>  48</c><c>B </c><c>     10.81100000</c><c>      3.00000000</c><c>  PAW_PBE B 06Sep2000                   </c></rc>
    <rc><c>  48</c><c>N </c><c>     14.00100000</c><c>      5.00000000</c><c>  PAW_PBE N 08Apr2002                   </c></rc>
    <rc><c>   1</c><c>C </c><c>     12.01100000</c><c>      4.00000000</c><c>  PAW_PBE C 08Apr2002                   </c></rc>
   </set>
  </array>
 </atominfo>
 <structure name="initialpos" >
  <crystal>
   <varray name="basis" >
    <v>      17.59966831       0.00000000       0.00000000 </v>
    <v>      -8.79983416      15.24175986       0.00000000 </v>
    <v>       0.00000000       0.00000000      19.92151445 </v>
   </varray>
   <i name="volume">   5343.94461817 </i>
   <varray name="rec_basis" >
    <v>       0.05681925       0.03280461       0.00000000 </v>
    <v>       0.00000000       0.06560922       0.00000000 </v>
    <v>       0.00000000       0.00000000       0.05019699 </v>
   </varray>
  </crystal>
  <varray name="positions" >
   <v>       0.99943010       0.00005992       0.50000000 </v>
   <v>       0.14164706       0.99871895       0.50000000 </v>
   <v>       0.28492260       0.99841663       0.50000000 </v>
   <v>       0.42850047       0.99871895       0.50000000 </v>
   <v>       0.57205839       0.00005992       0.50000000 </v>
   <v>       0.71530655       0.00214292       0.50000000 </v>
   <v>       0.85826494       0.00214292       0.50000000 </v>
   <v>       0.00080792       0.14408264       0.50000000 </v>
   <v>       0.14259355       0.14244783       0.50000000 </v>
   <v>       0.28470221       0.14112972       0.50000000 </v>
   <v>       0.42785608       0.14112972       0.50000000 </v>
   <v>       0.57128286       0.14244783       0.50000000 </v>
   <v>       0.71470329       0.14408264       0.50000000 </v>
   <v>       0.85805263       0.14467669       0.50000000 </v>
   <v>       0.00095476       0.28713011       0.50000000 </v>
   <v>       0.14372552       0.28645370       0.50000000 </v>
   <v>       0.28540977       0.28412554       0.50000000 </v>
   <v>       0.42724431       0.28306005       0.50000000 </v>
   <v>       0.57071254       0.28469374       0.50000000 </v>
   <v>       0.71415674       0.28645370       0.50000000 </v>
   <v>       0.85760392       0.28713011       0.50000000 </v>
   <v>       0.00054479       0.42966101       0.50000000 </v>
   <v>       0.14422690       0.42957551       0.50000000 </v>
   <v>       0.28730213       0.42918005       0.50000000 </v>
   <v>       0.42797654       0.42569726       0.50000000 </v>
   <v>       0.56914930       0.42569726       0.50000000 </v>
   <v>       0.71330650       0.42918005       0.50000000 </v>
   <v>       0.85677719       0.42957551       0.50000000 </v>
   <v>       0.99928255       0.57181462       0.50000000 </v>
   <v>       0.14396064       0.57181462       0.50000000 </v>
   <v>       0.28862787       0.57181625       0.50000000 </v>
   <v>       0.43313209       0.57215564       0.50000000 </v>
   <v>       0.71045212       0.57215564       0.50000000 </v>
   <v>       0.85461695       0.57181625       0.50000000 </v>
   <v>       0.99707234       0.71370518       0.50000000 </v>
   <v>       0.14255519       0.71368182       0.50000000 </v>
   <v>       0.28806142       0.71370518       0.50000000 </v>
   <v>       0.43464191       0.71382540       0.50000000 </v>
   <v>       0.58510826       0.71626937       0.50000000 </v>
   <v>       0.70258968       0.71626937       0.50000000 </v>
   <v>       0.85061206       0.71382540       0.50000000 </v>
   <v>       0.99777175       0.85613493       0.50000000 </v>
   <v>       0.14160898       0.85591288       0.50000000 </v>
   <v>       0.28573247       0.85591288       0.50000000 </v>
   <v>       0.42979175       0.85613493       0.50000000 </v>
   <v>       0.57342541       0.85758690       0.50000000 </v>
   <v>       0.71640633       0.86138410       0.50000000 </v>
   <v>       0.85559006       0.85758690       0.50000000 </v>
   <v>       0.04754270       0.09547788       0.50000000 </v>
   <v>       0.18957833       0.09405657       0.50000000 </v>
   <v>       0.33254182       0.09365506       0.50000000 </v>
   <v>       0.47590681       0.09405657       0.50000000 </v>
   <v>       0.61936376       0.09547788       0.50000000 </v>
   <v>       0.76280004       0.09719274       0.50000000 </v>
   <v>       0.90582126       0.09719274       0.50000000 </v>
   <v>       0.04854983       0.23934281       0.50000000 </v>
   <v>       0.19048138       0.23782962       0.50000000 </v>
   <v>       0.33234878       0.23634667       0.50000000 </v>
   <v>       0.47542646       0.23634667       0.50000000 </v>
   <v>       0.61877681       0.23782962       0.50000000 </v>
   <v>       0.76222155       0.23934281       0.50000000 </v>
   <v>       0.90562797       0.23982737       0.50000000 </v>
   <v>       0.04871288       0.38232824       0.50000000 </v>
   <v>       0.19188940       0.38184213       0.50000000 </v>
   <v>       0.33352206       0.38013969       0.50000000 </v>
   <v>       0.47472270       0.37801683       0.50000000 </v>
   <v>       0.61804620       0.38013969       0.50000000 </v>
   <v>       0.76138130       0.38184213       0.50000000 </v>
   <v>       0.90504393       0.38232824       0.50000000 </v>
   <v>       0.04810654       0.52478452       0.50000000 </v>
   <v>       0.19263929       0.52476864       0.50000000 </v>
   <v>       0.33696521       0.52455433       0.50000000 </v>
   <v>       0.47833704       0.52146721       0.50000000 </v>
   <v>       0.61455874       0.52146721       0.50000000 </v>
   <v>       0.75901769       0.52455433       0.50000000 </v>
   <v>       0.90355792       0.52476864       0.50000000 </v>
   <v>       0.04642473       0.66685228       0.50000000 </v>
   <v>       0.19185612       0.66685228       0.50000000 </v>
   <v>       0.33777931       0.66688794       0.50000000 </v>
   <v>       0.48615700       0.66710760       0.50000000 </v>
   <v>       0.75237918       0.66710760       0.50000000 </v>
   <v>       0.90053720       0.66688794       0.50000000 </v>
   <v>       0.04582562       0.80879365       0.50000000 </v>
   <v>       0.19009580       0.80876303       0.50000000 </v>
   <v>       0.33439660       0.80879365       0.50000000 </v>
   <v>       0.47844872       0.80897069       0.50000000 </v>
   <v>       0.62209487       0.81129474       0.50000000 </v>
   <v>       0.76062845       0.81129474       0.50000000 </v>
   <v>       0.90195054       0.80897069       0.50000000 </v>
   <v>       0.04629157       0.95154386       0.50000000 </v>
   <v>       0.18948291       0.95113037       0.50000000 </v>
   <v>       0.33307603       0.95113037       0.50000000 </v>
   <v>       0.47668087       0.95154386       0.50000000 </v>
   <v>       0.62015751       0.95313740       0.50000000 </v>
   <v>       0.76355772       0.95568687       0.50000000 </v>
   <v>       0.90440847       0.95313740       0.50000000 </v>
   <v>       0.56830873       0.56518888       0.50000000 </v>
  </varray>
 </structure>
 <calculation>
  <scstep>
   <time name="dav">    2.35    2.37</time>
   <time name="total">    2.75    2.81</time>
   <energy>
    <i name="alphaZ">    156.50993408 </i>
    <i name="ewald">  58206.80194245 </i>
    <i name="hartreedc"> -70374.21914343 </i>
    <i name="XCdc">   1302.10886069 </i>
    <i name="pawpsdc">  12033.28670802 </i>
    <i name="pawaedc"> -12049.96799276 </i>
    <i name="eentropy">     -0.00000000 </i>
    <i name="bandstr">   -904.51962740 </i>
    <i name="atom">  16260.93880140 </i>
    <i name="e_fr_energy">   4630.93948304 </i>
    <i name="e_wo_entrp">   4630.93948304 </i>
    <i name="e_0_energy">   4630.93948304 </i>
   </energy>
  </scstep>
  <scstep>
   <time name="dav">    3.00    3.04</time>
   <time name="total">    3.00    3.04</time>
   <energy>
    <i name="e_fr_energy">    216.72335687 </i>
    <i name="e_wo_entrp">    216.72335687 </i>
    <i name="e_0_energy">    216.72335687 </i>
   </energy>
  </scstep>
  <scstep>
   <time name="dav">    2.47    2.50</time>
   <time name="total">    2.47    2.50</time>
   <energy>
    <i name="e_fr_energy">   -867.46467650 </i>
    <i name="e_wo_entrp">   -867.46467650 </i>
    <i name="e_0_energy">   -867.46467650 </i>
   </energy>
  </scstep>
  <scstep>
   <time name="dav">    2.47    2.50</time>
   <time name="total">    2.47    2.50</time>
   <energy>
    <i name="e_fr_energy">   -934.19247105 </i>
    <i name="e_wo_entrp">   -934.19247105 </i>
    <i name="e_0_energy">   -934.19247105 </i>
   </energy>
  </scstep>
  <scstep>
   <time name="dav">    2.49    2.52</time>
   <time name="total">    2.93    2.97</time>
   <energy>
    <i name="e_fr_energy">   -935.77460069 </i>
    <i name="e_wo_entrp">   -935.77460069 </i>
    <i name="e_0_energy">   -935.77460069 </i>
   </energy>
  </scstep>
  <scstep>
   <time name="dav">    2.34    2.36</time>
   <time name="total">    3.14    3.18</time>
   <energy>
    <i name="e_fr_energy">   -858.73379643 </i>
    <i name="e_wo_entrp">   -858.73379643 </i>
    <i name="e_0_energy">   -858.73379643 </i>
   </energy>
  </scstep>
  <scstep>
   <time name="dav">    2.35    2.37</time>
   <time name="total">    3.15    3.19</time>
   <energy>
    <i name="e_fr_energy">   -850.19300579 </i>
    <i name="e_wo_entrp">   -850.19300579 </i>
    <i name="e_0_energy">   -850.19300579 </i>
   </energy>
  </scstep>
  <scstep>
   <time name="dav">    2.28    2.30</time>
   <time name="total">    3.08    3.12</time>
   <energy>
    <i name="e_fr_energy">   -845.92601481 </i>
    <i name="e_wo_entrp">   -845.92601356 </i>
    <i name="e_0_energy">   -845.92601418 </i>
   </energy>
  </scstep>
  <scstep>
   <time name="dav">    2.31    2.33</time>
   <time name="total">    3.12    3.16</time>
   <energy>
    <i name="e_fr_energy">   -845.80060854 </i>
    <i name="e_wo_entrp">   -845.80060854 </i>
    <i name="e_0_energy">   -845.80060854 </i>
   </energy>
  </scstep>
  <scstep>
   <time name="dav">    2.37    2.40</time>
   <time name="total">    3.18    3.21</time>
   <energy>
    <i name="e_fr_energy">   -845.63899615 </i>
    <i name="e_wo_entrp">   -845.63899615 </i>
    <i name="e_0_energy">   -845.63899615 </i>
   </energy>
  </scstep>
  <scstep>
   <time name="dav">    2.23    2.25</time>
   <time name="total">    3.04    3.08</time>
   <energy>
    <i name="e_fr_energy">   -845.58666233 </i>
    <i name="e_wo_entrp">   -845.58666233 </i>
    <i name="e_0_energy">   -845.58666233 </i>
   </energy>
  </scstep>
  <scstep>
   <time name="dav">    2.26    2.28</time>
   <time name="total">    3.07    3.10</time>
   <energy>
    <i name="e_fr_energy">   -845.57383601 </i>
    <i name="e_wo_entrp">   -845.57383601 </i>
    <i name="e_0_energy">   -845.57383601 </i>
   </energy>
  </scstep>
  <scstep>
   <time name="dav">    2.23    2.25</time>
   <time name="total">    3.05    3.08</time>
   <energy>
    <i name="e_fr_energy">   -845.58445578 </i>
    <i name="e_wo_entrp">   -845.58445578 </i>
    <i name="e_0_energy">   -845.58445578 </i>
   </energy>
  </scstep>
  <scstep>
   <time name="dav">    2.25    2.27</time>
   <time name="total">    3.06    3.09</time>
   <energy>
    <i name="e_fr_energy">   -845.59405968 </i>
    <i name="e_wo_entrp">   -845.59405968 </i>
    <i name="e_0_energy">   -845.59405968 </i>
   </energy>
  </scstep>
  <scstep>
   <time name="dav">    2.14    2.16</time>
   <time name="total">    2.95    3.00</time>
   <energy>
    <i name="e_fr_energy">   -845.62535367 </i>
    <i name="e_wo_entrp">   -845.62535367 </i>
    <i name="e_0_energy">   -845.62535367 </i>
   </energy>
  </scstep>
  <scstep>
   <time name="dav">    2.26    2.27</time>
   <time name="total">    3.06    3.09</time>
   <energy>
    <i name="e_fr_energy">   -845.64169721 </i>
    <i name="e_wo_entrp">   -845.64169721 </i>
    <i name="e_0_energy">   -845.64169721 </i>
   </energy>
  </scstep>
  <scstep>
   <time name="dav">    2.28    2.30</time>
   <time name="total">    3.08    3.12</time>
   <energy>
    <i name="e_fr_energy">   -845.64795369 </i>
    <i name="e_wo_entrp">   -845.64795369 </i>
    <i name="e_0_energy">   -845.64795369 </i>
   </energy>
  </scstep>
  <scstep>
   <time name="dav">    2.20    2.22</time>
   <time name="total">    3.01    3.05</time>
   <energy>
    <i name="e_fr_energy">   -845.65109938 </i>
    <i name="e_wo_entrp">   -845.65109938 </i>
    <i name="e_0_energy">   -845.65109938 </i>
   </energy>
  </scstep>
  <scstep>
   <time name="dav">    2.31    2.34</time>
   <time name="total">    3.13    3.16</time>
   <energy>
    <i name="e_fr_energy">   -845.65212725 </i>
    <i name="e_wo_entrp">   -845.65212725 </i>
    <i name="e_0_energy">   -845.65212725 </i>
   </energy>
  </scstep>
  <scstep>
   <time name="dav">    2.23    2.25</time>
   <time name="total">    3.04    3.08</time>
   <energy>
    <i name="e_fr_energy">   -845.65254291 </i>
    <i name="e_wo_entrp">   -845.65254291 </i>
    <i name="e_0_energy">   -845.65254291 </i>
   </energy>
  </scstep>
  <scstep>
   <time name="dav">    2.20    2.22</time>
   <time name="total">    3.01    3.05</time>
   <energy>
    <i name="e_fr_energy">   -845.65274514 </i>
    <i name="e_wo_entrp">   -845.65274514 </i>
    <i name="e_0_energy">   -845.65274514 </i>
   </energy>
  </scstep>
  <scstep>
   <time name="dav">    2.22    2.24</time>
   <time name="total">    3.03    3.07</time>
   <energy>
    <i name="e_fr_energy">   -845.65286027 </i>
    <i name="e_wo_entrp">   -845.65286027 </i>
    <i name="e_0_energy">   -845.65286027 </i>
   </energy>
  </scstep>
  <scstep>
   <time name="dav">    2.25    2.27</time>
   <time name="total">    3.06    3.10</time>
   <energy>
    <i name="e_fr_energy">   -845.65293585 </i>
    <i name="e_wo_entrp">   -845.65293585 </i>
    <i name="e_0_energy">   -845.65293585 </i>
   </energy>
  </scstep>
  <scstep>
   <time name="dav">    2.28    2.30</time>
   <time name="total">    3.10    3.13</time>
   <energy>
    <i name="e_fr_energy">   -845.65297435 </i>
    <i name="e_wo_entrp">   -845.65297435 </i>
    <i name="e_0_energy">   -845.65297435 </i>
   </energy>
  </scstep>
  <scstep>
   <time name="dav">    2.27    2.29</time>
   <time name="total">    3.08    3.12</time>
   <energy>
    <i name="e_fr_energy">   -845.65299172 </i>
    <i name="e_wo_entrp">   -845.65299172 </i>
    <i name="e_0_energy">   -845.65299172 </i>
   </energy>
  </scstep>
  <scstep>
   <time name="dav">    2.23    2.25</time>
   <time name="total">    3.04    3.08</time>
   <energy>
    <i name="e_fr_energy">   -845.65300839 </i>
    <i name="e_wo_entrp">   -845.65300839 </i>
    <i name="e_0_energy">   -845.65300839 </i>
   </energy>
  </scstep>
  <scstep>
   <time name="dav">    2.21    2.23</time>
   <time name="total">    3.02    3.07</time>
   <energy>
    <i name="e_fr_energy">   -845.65301164 </i>
    <i name="e_wo_entrp">   -845.65301164 </i>
    <i name="e_0_energy">   -845.65301164 </i>
   </energy>
  </scstep>
  <scstep>
   <time name="dav">    1.96    1.98</time>
   <time name="total">    2.78    2.82</time>
   <energy>
    <i name="e_fr_energy">   -845.65301293 </i>
    <i name="e_wo_entrp">   -845.65301293 </i>
    <i name="e_0_energy">   -845.65301293 </i>
   </energy>
  </scstep>
  <scstep>
   <time name="dav">    1.79    1.81</time>
   <time name="total">    2.61    2.65</time>
   <energy>
    <i name="e_fr_energy">   -845.65301323 </i>
    <i name="e_wo_entrp">   -845.65301323 </i>
    <i name="e_0_energy">   -845.65301323 </i>
   </energy>
  </scstep>
  <scstep>
   <time name="dav">    1.69    1.71</time>
   <time name="total">    2.51    2.54</time>
   <energy>
    <i name="e_fr_energy">   -845.65301334 </i>
    <i name="e_wo_entrp">   -845.65301334 </i>
    <i name="e_0_energy">   -845.65301334 </i>
   </energy>
  </scstep>
  <scstep>
   <time name="dav">    1.66    1.68</time>
   <time name="total">    2.49    2.53</time>
   <energy>
    <i name="e_fr_energy">   -845.65301340 </i>
    <i name="e_wo_entrp">   -845.65301340 </i>
    <i name="e_0_energy">   -845.65301340 </i>
   </energy>
  </scstep>
  <scstep>
   <time name="dav">    1.72    1.73</time>
   <time name="total">    2.55    2.58</time>
   <energy>
    <i name="e_fr_energy">   -845.65301343 </i>
    <i name="e_wo_entrp">   -845.65301343 </i>
    <i name="e_0_energy">   -845.65301343 </i>
   </energy>
  </scstep>
  <scstep>
   <time name="dav">    1.79    1.80</time>
   <time name="total">    2.16    2.19</time>
   <energy>
    <i name="alphaZ">    156.50993408 </i>
    <i name="ewald">  58206.80194245 </i>
    <i name="hartreedc"> -72314.29305943 </i>
    <i name="XCdc">   1369.72422939 </i>
    <i name="pawpsdc">  44018.88518071 </i>
    <i name="pawaedc"> -44054.22712134 </i>
    <i name="eentropy">     -0.00000000 </i>
    <i name="bandstr">  -4489.99292069 </i>
    <i name="atom">  16260.93880140 </i>
    <i name="e_fr_energy">   -845.65301343 </i>
    <i name="e_wo_entrp">   -845.65301343 </i>
    <i name="e_0_energy">   -845.65301343 </i>
   </energy>
  </scstep>
  <structure>
   <crystal>
    <varray name="basis" >
     <v>      17.59966831       0.00000000       0.00000000 </v>
     <v>      -8.79983416      15.24175986       0.00000000 </v>
     <v>       0.00000000       0.00000000      19.92151445 </v>
    </varray>
    <i name="volume">   5343.94461817 </i>
    <varray name="rec_basis" >
     <v>       0.05681925       0.03280461       0.00000000 </v>
     <v>       0.00000000       0.06560922       0.00000000 </v>
     <v>       0.00000000       0.00000000       0.05019699 </v>
    </varray>
   </crystal>
   <varray name="positions" >
    <v>       0.99943010       0.00005992       0.50000000 </v>
    <v>       0.14164706       0.99871895       0.50000000 </v>
    <v>       0.28492260       0.99841663       0.50000000 </v>
    <v>       0.42850047       0.99871895       0.50000000 </v>
    <v>       0.57205839       0.00005992       0.50000000 </v>
    <v>       0.71530655       0.00214292       0.50000000 </v>
    <v>       0.85826494       0.00214292       0.50000000 </v>
    <v>       0.00080792       0.14408264       0.50000000 </v>
    <v>       0.14259355       0.14244783       0.50000000 </v>
    <v>       0.28470221       0.14112972       0.50000000 </v>
    <v>       0.42785608       0.14112972       0.50000000 </v>
    <v>       0.57128286       0.14244783       0.50000000 </v>
    <v>       0.71470329       0.14408264       0.50000000 </v>
    <v>       0.85805263       0.14467669       0.50000000 </v>
    <v>       0.00095476       0.28713011       0.50000000 </v>
    <v>       0.14372552       0.28645370       0.50000000 </v>
    <v>       0.28540977       0.28412554       0.50000000 </v>
    <v>       0.42724431       0.28306005       0.50000000 </v>
    <v>       0.57071254       0.28469374       0.50000000 </v>
    <v>       0.71415674       0.28645370       0.50000000 </v>
    <v>       0.85760392       0.28713011       0.50000000 </v>
    <v>       0.00054479       0.42966101       0.50000000 </v>
    <v>       0.14422690       0.42957551       0.50000000 </v>
    <v>       0.28730213       0.42918005       0.50000000 </v>
    <v>       0.42797654       0.42569726       0.50000000 </v>
    <v>       0.56914930       0.42569726       0.50000000 </v>
    <v>       0.71330650       0.42918005       0.50000000 </v>
    <v>       0.85677719       0.42957551       0.50000000 </v>
    <v>       0.99928255       0.57181462       0.50000000 </v>
    <v>       0.14396064       0.57181462       0.50000000 </v>
    <v>       0.28862787       0.57181625       0.50000000 </v>
    <v>       0.43313209       0.57215564       0.50000000 </v>
    <v>       0.71045212       0.57215564       0.50000000 </v>
    <v>       0.85461695       0.57181625       0.50000000 </v>
    <v>       0.99707234       0.71370518       0.50000000 </v>
    <v>       0.14255519       0.71368182       0.50000000 </v>
    <v>       0.28806142       0.71370518       0.50000000 </v>
    <v>       0.43464191       0.71382540       0.50000000 </v>
    <v>       0.58510826       0.71626937       0.50000000 </v>
    <v>       0.70258968       0.71626937       0.50000000 </v>
    <v>       0.85061206       0.71382540       0.50000000 </v>
    <v>       0.99777175       0.85613493       0.50000000 </v>
    <v>       0.14160898       0.85591288       0.50000000 </v>
    <v>       0.28573247       0.85591288       0.50000000 </v>
    <v>       0.42979175       0.85613493       0.50000000 </v>
    <v>       0.57342541       0.85758690       0.50000000 </v>
    <v>       0.71640633       0.86138410       0.50000000 </v>
    <v>       0.85559006       0.85758690       0.50000000 </v>
    <v>       0.04754270       0.09547788       0.50000000 </v>
    <v>       0.18957833       0.09405657       0.50000000 </v>
    <v>       0.33254182       0.09365506       0.50000000 </v>
    <v>       0.47590681       0.09405657       0.50000000 </v>
    <v>       0.61936376       0.09547788       0.50000000 </v>
    <v>       0.76280004       0.09719274       0.50000000 </v>
    <v>       0.90582126       0.09719274       0.50000000 </v>
    <v>       0.04854983       0.23934281       0.50000000 </v>
    <v>       0.19048138       0.23782962       0.50000000 </v>
    <v>       0.33234878       0.23634667       0.50000000 </v>
    <v>       0.47542646       0.23634667       0.50000000 </v>
    <v>       0.61877681       0.23782962       0.50000000 </v>
    <v>       0.76222155       0.23934281       0.50000000 </v>
    <v>       0.90562797       0.23982737       0.50000000 </v>
    <v>       0.04871288       0.38232824       0.50000000 </v>
    <v>       0.19188940       0.38184213       0.50000000 </v>
    <v>       0.33352206       0.38013969       0.50000000 </v>
    <v>       0.47472270       0.37801683       0.50000000 </v>
    <v>       0.61804620       0.38013969       0.50000000 </v>
    <v>       0.76138130       0.38184213       0.50000000 </v>
    <v>       0.90504393       0.38232824       0.50000000 </v>
    <v>       0.04810654       0.52478452       0.50000000 </v>
    <v>       0.19263929       0.52476864       0.50000000 </v>
    <v>       0.33696521       0.52455433       0.50000000 </v>
    <v>       0.47833704       0.52146721       0.50000000 </v>
    <v>       0.61455874       0.52146721       0.50000000 </v>
    <v>       0.75901769       0.52455433       0.50000000 </v>
    <v>       0.90355792       0.52476864       0.50000000 </v>
    <v>       0.04642473       0.66685228       0.50000000 </v>
    <v>       0.19185612       0.66685228       0.50000000 </v>
    <v>       0.33777931       0.66688794       0.50000000 </v>
    <v>       0.48615700       0.66710760       0.50000000 </v>
    <v>       0.75237918       0.66710760       0.50000000 </v>
    <v>       0.90053720       0.66688794       0.50000000 </v>
    <v>       0.04582562       0.80879365       0.50000000 </v>
    <v>       0.19009580       0.80876303       0.50000000 </v>
    <v>       0.33439660       0.80879365       0.50000000 </v>
    <v>       0.47844872       0.80897069       0.50000000 </v>
    <v>       0.62209487       0.81129474       0.50000000 </v>
    <v>       0.76062845       0.81129474       0.50000000 </v>
    <v>       0.90195054       0.80897069       0.50000000 </v>
    <v>       0.04629157       0.95154386       0.50000000 </v>
    <v>       0.18948291       0.95113037       0.50000000 </v>
    <v>       0.33307603       0.95113037       0.50000000 </v>
    <v>       0.47668087       0.95154386       0.50000000 </v>
    <v>       0.62015751       0.95313740       0.50000000 </v>
    <v>       0.76355772       0.95568687       0.50000000 </v>
    <v>       0.90440847       0.95313740       0.50000000 </v>
    <v>       0.56830873       0.56518888       0.50000000 </v>
   </varray>
  </structure>
  <varray name="forces" >
   <v>      -0.04253132      -0.02537367       0.00000000 </v>
   <v>      -0.02252079      -0.01603997      -0.00000000 </v>
   <v>       0.00054514      -0.01918649       0.00000000 </v>
   <v>       0.02372658      -0.01221239      -0.00000000 </v>
   <v>       0.04092684      -0.02741138       0.00000000 </v>
   <v>      -0.03340943      -0.05006750      -0.00000000 </v>
   <v>       0.03308015      -0.04951347       0.00000000 </v>
   <v>      -0.00645930      -0.02597760       0.00000000 </v>
   <v>      -0.05295978      -0.02608135       0.00000000 </v>
   <v>       0.00579869      -0.07609640       0.00000000 </v>
   <v>       0.01355338      -0.03635492       0.00000000 </v>
   <v>       0.03012020      -0.02513403      -0.00000000 </v>
   <v>       0.00723926      -0.02662072       0.00000000 </v>
   <v>       0.00019577      -0.04090418       0.00000000 </v>
   <v>      -0.00796624      -0.02643281       0.00000000 </v>
   <v>       0.01967639      -0.02336538       0.00000000 </v>
   <v>      -0.28436787       0.41986318      -0.00000000 </v>
   <v>       0.03065829      -0.06271405       0.00000000 </v>
   <v>       0.03589699       0.00328427      -0.00000000 </v>
   <v>      -0.00333972      -0.04298177       0.00000000 </v>
   <v>       0.00965671      -0.02852944      -0.00000000 </v>
   <v>       0.00177074       0.00689846       0.00000000 </v>
   <v>      -0.01973003      -0.00368511       0.00000000 </v>
   <v>       0.08551309      -0.17136275      -0.00000000 </v>
   <v>      -0.15450674      -0.20987933       0.00000000 </v>
   <v>       0.11138582      -0.19879750       0.00000000 </v>
   <v>      -0.05627881      -0.13692379       0.00000000 </v>
   <v>       0.02652862      -0.00070398      -0.00000000 </v>
   <v>       0.01807256       0.02791848       0.00000000 </v>
   <v>      -0.01409094       0.02705673      -0.00000000 </v>
   <v>      -0.08078325       0.12453558       0.00000000 </v>
   <v>       0.04868248       0.39067806       0.00000000 </v>
   <v>      -0.05325306       0.39533073      -0.00000000 </v>
   <v>       0.08558413       0.12758383      -0.00000000 </v>
   <v>      -0.00834406       0.02073441      -0.00000000 </v>
   <v>       0.00115802       0.02563076       0.00000000 </v>
   <v>       0.01030430       0.02000434       0.00000000 </v>
   <v>       0.08759145       0.04035448       0.00000000 </v>
   <v>       1.36282661       1.24851291      -0.00000000 </v>
   <v>      -1.36551340       1.24938394       0.00000000 </v>
   <v>      -0.08742906       0.04207627       0.00000000 </v>
   <v>      -0.04733581      -0.00956432       0.00000000 </v>
   <v>      -0.01267192      -0.00786007       0.00000000 </v>
   <v>       0.01384199      -0.00722822       0.00000000 </v>
   <v>       0.04787570      -0.00989682       0.00000000 </v>
   <v>       0.15117581       0.03473093      -0.00000000 </v>
   <v>      -0.00080749      -0.25344543       0.00000000 </v>
   <v>      -0.15205042       0.03572942       0.00000000 </v>
   <v>       0.02844037       0.02653659       0.00000000 </v>
   <v>       0.02169886       0.03220291      -0.00000000 </v>
   <v>      -0.00710897       0.03430344      -0.00000000 </v>
   <v>      -0.01498222       0.02551712       0.00000000 </v>
   <v>      -0.02855052       0.03282429       0.00000000 </v>
   <v>      -0.01334659       0.02728466       0.00000000 </v>
   <v>       0.01270655       0.02674769      -0.00000000 </v>
   <v>       0.02000136       0.03112129      -0.00000000 </v>
   <v>       0.03300794      -0.06575763      -0.00000000 </v>
   <v>       0.16141761      -0.09617917      -0.00000000 </v>
   <v>      -0.02937328       0.03406948       0.00000000 </v>
   <v>       0.00532507       0.00232353       0.00000000 </v>
   <v>      -0.01775348       0.03505503      -0.00000000 </v>
   <v>      -0.00066328       0.03022139       0.00000000 </v>
   <v>       0.00783345       0.02496638      -0.00000000 </v>
   <v>       0.03510728       0.05509980       0.00000000 </v>
   <v>       0.02031320      -0.37550442       0.00000000 </v>
   <v>       0.01091372       0.09107399      -0.00000000 </v>
   <v>       0.02154336      -0.20400966      -0.00000000 </v>
   <v>      -0.04895236       0.05843743       0.00000000 </v>
   <v>      -0.01251880       0.02576929      -0.00000000 </v>
   <v>      -0.00179434       0.00948705       0.00000000 </v>
   <v>       0.02203234      -0.00504618       0.00000000 </v>
   <v>       0.18831700       0.12236388      -0.00000000 </v>
   <v>       1.03203729      -1.55342376       0.00000000 </v>
   <v>      -1.01791611      -1.56593504       0.00000000 </v>
   <v>      -0.18922188       0.11155707       0.00000000 </v>
   <v>      -0.02632457      -0.00717736       0.00000000 </v>
   <v>       0.00919138      -0.03195901      -0.00000000 </v>
   <v>      -0.01141527      -0.03116061       0.00000000 </v>
   <v>      -0.06059096      -0.06319279      -0.00000000 </v>
   <v>      -0.26974600       0.01350732       0.00000000 </v>
   <v>       0.27156050       0.01016036      -0.00000000 </v>
   <v>       0.05936937      -0.06580309       0.00000000 </v>
   <v>       0.03694925      -0.01107603      -0.00000000 </v>
   <v>      -0.00077553      -0.00870192       0.00000000 </v>
   <v>      -0.03771681      -0.01052297       0.00000000 </v>
   <v>      -0.08619911      -0.01093763       0.00000000 </v>
   <v>      -0.88605856       0.24596464      -0.00000000 </v>
   <v>       0.88735465       0.24492659      -0.00000000 </v>
   <v>       0.08643693      -0.01236244      -0.00000000 </v>
   <v>       0.03472828       0.01937305       0.00000000 </v>
   <v>       0.01026864       0.00081609       0.00000000 </v>
   <v>      -0.01195259      -0.00029983       0.00000000 </v>
   <v>      -0.03360736       0.01915061      -0.00000000 </v>
   <v>      -0.11149340       0.12041974       0.00000000 </v>
   <v>       0.00014770       0.01696543       0.00000000 </v>
   <v>       0.11185026       0.11913352       0.00000000 </v>
   <v>      -0.00752664      -0.11829205       0.00000000 </v>
  </varray>
  <varray name="stress" >
   <v>     -10.57335438      -0.02053007       0.00000000 </v>
   <v>      -0.02053007       3.00764976       0.00000000 </v>
   <v>       0.00000000       0.00000000      -0.42556494 </v>
  </varray>
  <energy>
   <i name="e_fr_energy">   -845.65301343 </i>
   <i name="e_wo_entrp">   -845.65301343 </i>
   <i name="e_0_energy">     -0.00000000 </i>
  </energy>
  <time name="totalsc">  103.78  105.11</time>
  <eigenvalues>
   <array>
    <dimension dim="1">band</dimension>
    <dimension dim="2">kpoint</dimension>
    <dimension dim="3">spin</dimension>
    <field>eigene</field>
    <field>occ</field>
    <set>
     <set comment="spin 1">
      <set comment="kpoint 1">
       <r>  -22.5365    1.0000 </r>
       <r>  -22.0215    1.0000 </r>
       <r>  -21.7706    1.0000 </r>
       <r>  -21.7493    1.0000 </r>
       <r>  -21.6969    1.0000 </r>
       <r>  -21.6545    1.0000 </r>
       <r>  -21.6180    1.0000 </r>
       <r>  -21.2353    1.0000 </r>
       <r>  -21.0664    1.0000 </r>
       <r>  -21.0075    1.0000 </r>
       <r>  -20.9707    1.0000 </r>
       <r>  -20.9262    1.0000 </r>
       <r>  -20.8756    1.0000 </r>
       <r>  -20.7450    1.0000 </r>
       <r>  -20.7029    1.0000 </r>
       <r>  -20.6642    1.0000 </r>
       <r>  -20.5940    1.0000 </r>
       <r>  -20.5674    1.0000 </r>
       <r>  -20.4274    1.0000 </r>
       <r>  -19.9781    1.0000 </r>
       <r>  -19.9238    1.0000 </r>
       <r>  -19.8021    1.0000 </r>
       <r>  -19.7653    1.0000 </r>
       <r>  -19.7381    1.0000 </r>
       <r>  -19.7352    1.0000 </r>
       <r>  -19.7073    1.0000 </r>
       <r>  -19.6995    1.0000 </r>
       <r>  -19.6455    1.0000 </r>
       <r>  -19.6387    1.0000 </r>
       <r>  -19.6295    1.0000 </r>
       <r>  -19.4947    1.0000 </r>
       <r>  -19.4093    1.0000 </r>
       <r>  -19.3644    1.0000 </r>
       <r>  -19.3578    1.0000 </r>
       <r>  -19.2883    1.0000 </r>
       <r>  -19.2374    1.0000 </r>
       <r>  -19.1067    1.0000 </r>
       <r>  -19.0001    1.0000 </r>
       <r>  -18.9295    1.0000 </r>
       <r>  -18.8802    1.0000 </r>
       <r>  -18.8549    1.0000 </r>
       <r>  -18.8370    1.0000 </r>
       <r>  -18.7657    1.0000 </r>
       <r>  -18.7508    1.0000 </r>
       <r>  -18.7270    1.0000 </r>
       <r>  -18.7135    1.0000 </r>
       <r>  -18.6945    1.0000 </r>
       <r>  -18.4438    1.0000 </r>
       <r>  -14.1337    1.0000 </r>
       <r>  -13.1850    1.0000 </r>
       <r>  -13.1551    1.0000 </r>
       <r>  -13.1094    1.0000 </r>
       <r>  -13.1061    1.0000 </r>
       <r>  -13.0814    1.0000 </r>
       <r>  -13.0170    1.0000 </r>
       <r>  -12.9589    1.0000 </r>
       <r>  -12.9500    1.0000 </r>
       <r>  -12.9365    1.0000 </r>
       <r>  -12.8051    1.0000 </r>
       <r>  -12.7664    1.0000 </r>
       <r>  -12.6029    1.0000 </r>
       <r>  -12.5024    1.0000 </r>
       <r>  -12.4861    1.0000 </r>
       <r>  -12.3794    1.0000 </r>
       <r>  -12.3076    1.0000 </r>
       <r>  -12.2972    1.0000 </r>
       <r>  -12.1760    1.0000 </r>
       <r>  -11.9011    1.0000 </r>
       <r>  -11.8835    1.0000 </r>
       <r>  -11.7671    1.0000 </r>
       <r>  -11.7644    1.0000 </r>
       <r>  -11.7553    1.0000 </r>
       <r>  -11.7426    1.0000 </r>
       <r>  -11.6943    1.0000 </r>
       <r>  -11.6560    1.0000 </r>
       <r>  -11.6317    1.0000 </r>
       <r>  -11.5408    1.0000 </r>
       <r>  -11.4201    1.0000 </r>
       <r>  -11.1984    1.0000 </r>
       <r>  -11.1236    1.0000 </r>
       <r>  -11.0869    1.0000 </r>
       <r>  -11.0596    1.0000 </r>
       <r>  -10.9655    1.0000 </r>
       <r>  -10.9124    1.0000 </r>
       <r>  -10.6862    1.0000 </r>
       <r>  -10.4611    1.0000 </r>
       <r>  -10.4300    1.0000 </r>
       <r>  -10.3532    1.0000 </r>
       <r>  -10.2527    1.0000 </r>
       <r>  -10.2075    1.0000 </r>
       <r>   -9.8892    1.0000 </r>
       <r>   -9.7674    1.0000 </r>
       <r>   -9.7596    1.0000 </r>
       <r>   -9.7244    1.0000 </r>
       <r>   -9.6769    1.0000 </r>
       <r>   -9.5877    1.0000 </r>
       <r>   -9.5426    1.0000 </r>
       <r>   -9.4990    1.0000 </r>
       <r>   -9.4671    1.0000 </r>
       <r>   -9.3502    1.0000 </r>
       <r>   -9.3470    1.0000 </r>
       <r>   -9.2868    1.0000 </r>
       <r>   -9.2585    1.0000 </r>
       <r>   -9.2524    1.0000 </r>
       <r>   -9.2507    1.0000 </r>
       <r>   -9.2370    1.0000 </r>
       <r>   -9.2266    1.0000 </r>
       <r>   -9.2214    1.0000 </r>
       <r>   -9.2099    1.0000 </r>
       <r>   -9.2027    1.0000 </r>
       <r>   -9.2023    1.0000 </r>
       <r>   -9.1994    1.0000 </r>
       <r>   -9.1556    1.0000 </r>
       <r>   -9.1354    1.0000 </r>
       <r>   -9.1112    1.0000 </r>
       <r>   -9.1106    1.0000 </r>
       <r>   -9.1031    1.0000 </r>
       <r>   -9.0447    1.0000 </r>
       <r>   -8.9941    1.0000 </r>
       <r>   -8.8451    1.0000 </r>
       <r>   -8.7927    1.0000 </r>
       <r>   -8.6523    1.0000 </r>
       <r>   -8.5087    1.0000 </r>
       <r>   -8.4815    1.0000 </r>
       <r>   -8.4419    1.0000 </r>
       <r>   -8.3278    1.0000 </r>
       <r>   -8.2205    1.0000 </r>
       <r>   -8.2033    1.0000 </r>
       <r>   -8.2005    1.0000 </r>
       <r>   -8.1714    1.0000 </r>
       <r>   -8.1478    1.0000 </r>
       <r>   -8.1231    1.0000 </r>
       <r>   -8.0383    1.0000 </r>
       <r>   -7.9674    1.0000 </r>
       <r>   -7.9517    1.0000 </r>
       <r>   -7.8741    1.0000 </r>
       <r>   -7.8498    1.0000 </r>
       <r>   -7.8459    1.0000 </r>
       <r>   -7.8013    1.0000 </r>
       <r>   -7.7997    1.0000 </r>
       <r>   -7.7981    1.0000 </r>
       <r>   -7.7365    1.0000 </r>
       <r>   -7.7348    1.0000 </r>
       <r>   -7.7094    1.0000 </r>
       <r>   -7.6774    1.0000 </r>
       <r>   -7.6728    1.0000 </r>
       <r>   -7.6637    1.0000 </r>
       <r>   -7.6379    1.0000 </r>
       <r>   -7.6310    1.0000 </r>
       <r>   -7.4412    1.0000 </r>
       <r>   -7.4391    1.0000 </r>
       <r>   -7.4320    1.0000 </r>
       <r>   -7.3877    1.0000 </r>
       <r>   -7.3578    1.0000 </r>
       <r>   -7.2716    1.0000 </r>
       <r>   -6.8319    1.0000 </r>
       <r>   -6.7576    1.0000 </r>
       <r>   -6.6201    1.0000 </r>
       <r>   -6.6048    1.0000 </r>
       <r>   -6.5404    1.0000 </r>
       <r>   -6.5376    1.0000 </r>
       <r>   -6.5036    1.0000 </r>
       <r>   -6.4875    1.0000 </r>
       <r>   -6.4582    1.0000 </r>
       <r>   -6.4563    1.0000 </r>
       <r>   -6.4428    1.0000 </r>
       <r>   -6.4385    1.0000 </r>
       <r>   -6.4107    1.0000 </r>
       <r>   -6.4052    1.0000 </r>
       <r>   -6.3608    1.0000 </r>
       <r>   -6.3462    1.0000 </r>
       <r>   -6.3176    1.0000 </r>
       <r>   -6.1114    1.0000 </r>
       <r>   -5.9723    1.0000 </r>
       <r>   -5.9246    1.0000 </r>
       <r>   -5.8881    1.0000 </r>
       <r>   -5.8816    1.0000 </r>
       <r>   -5.8628    1.0000 </r>
       <r>   -5.7802    1.0000 </r>
       <r>   -5.7784    1.0000 </r>
       <r>   -5.5264    1.0000 </r>
       <r>   -5.2188    1.0000 </r>
       <r>   -5.1964    1.0000 </r>
       <r>   -5.1949    1.0000 </r>
       <r>   -5.1397    1.0000 </r>
       <r>   -5.1349    1.0000 </r>
       <r>   -5.1049    1.0000 </r>
       <r>   -5.0002    1.0000 </r>
       <r>   -4.9467    1.0000 </r>
       <r>   -4.9174    1.0000 </r>
       <r>   -4.9072    1.0000 </r>
       <r>   -4.8985    1.0000 </r>
       <r>   -4.7311    1.0000 </r>
       <r>   -1.3124    1.0000 </r>
       <r>   -1.1996    0.0000 </r>
       <r>    0.0608    0.0000 </r>
       <r>    0.2047    0.0000 </r>
       <r>    0.2426    0.0000 </r>
       <r>    0.2550    0.0000 </r>
       <r>    0.2621    0.0000 </r>
       <r>    0.3015    0.0000 </r>
       <r>    0.3032    0.0000 </r>
       <r>    0.3786    0.0000 </r>
       <r>    0.3914    0.0000 </r>
       <r>    0.4365    0.0000 </r>
       <r>    0.4794    0.0000 </r>
       <r>    0.5255    0.0000 </r>
       <r>    0.6114    0.0000 </r>
       <r>    0.7467    0.0000 </r>
       <r>    0.7484    0.0000 </r>
       <r>    0.7788    0.0000 </r>
       <r>    0.8074    0.0000 </r>
       <r>    0.8105    0.0000 </r>
       <r>    0.8288    0.0000 </r>
       <r>    0.8380    0.0000 </r>
       <r>    0.8580    0.0000 </r>
       <r>    0.8715    0.0000 </r>
       <r>    0.9815    0.0000 </r>
       <r>    1.0203    0.0000 </r>
       <r>    1.0587    0.0000 </r>
       <r>    1.1185    0.0000 </r>
       <r>    1.4953    0.0000 </r>
       <r>    1.6732    0.0000 </r>
       <r>    1.6977    0.0000 </r>
       <r>    1.7053    0.0000 </r>
       <r>    1.7238    0.0000 </r>
       <r>    1.7398    0.0000 </r>
       <r>    1.7442    0.0000 </r>
       <r>    1.8064    0.0000 </r>
       <r>    1.8082    0.0000 </r>
       <r>    1.8461    0.0000 </r>
       <r>    1.8469    0.0000 </r>
       <r>    1.8775    0.0000 </r>
       <r>    1.8788    0.0000 </r>
       <r>    1.9060    0.0000 </r>
       <r>    1.9076    0.0000 </r>
       <r>    1.9299    0.0000 </r>
       <r>    1.9830    0.0000 </r>
       <r>    2.0304    0.0000 </r>
       <r>    2.1075    0.0000 </r>
       <r>    2.1087    0.0000 </r>
       <r>    2.1280    0.0000 </r>
       <r>    2.1347    0.0000 </r>
       <r>    2.1401    0.0000 </r>
      </set>
     </set>
    </set>
   </array>
  </eigenvalues>
  <separator name="orbital magnetization" >
   <v name="MAGDIPOLOUT">      0.00000000      0.00000000      0.00000000</v>
  </separator>
  <dos>
   <i name="efermi">     -1.25187273 </i>
   <total>
    <array>
     <dimension dim="1">gridpoints</dimension>
     <dimension dim="2">spin</dimension>
     <field>energy</field>
     <field>total</field>
     <field>integrated</field>
     <set>
      <set comment="spin 1">
       <r>   -23.7704     0.0000     0.0000 </r>
       <r>   -23.6799     0.0000     0.0000 </r>
       <r>   -23.5894     0.0000     0.0000 </r>
       <r>   -23.4989     0.0000     0.0000 </r>
       <r>   -23.4085     0.0000     0.0000 </r>
       <r>   -23.3180     0.0000     0.0000 </r>
       <r>   -23.2275     0.0000     0.0000 </r>
       <r>   -23.1370     0.0000     0.0000 </r>
       <r>   -23.0465     0.0000     0.0000 </r>
       <r>   -22.9560     0.0000     0.0000 </r>
       <r>   -22.8656     0.0000     0.0000 </r>
       <r>   -22.7751     0.0000     0.0000 </r>
       <r>   -22.6846     0.0000     0.0000 </r>
       <r>   -22.5941     0.0000     0.0000 </r>
       <r>   -22.5036    22.1040     2.0000 </r>
       <r>   -22.4132     0.0000     2.0000 </r>
       <r>   -22.3227     0.0000     2.0000 </r>
       <r>   -22.2322     0.0000     2.0000 </r>
       <r>   -22.1417     0.0000     2.0000 </r>
       <r>   -22.0512     0.0003     2.0000 </r>
       <r>   -21.9608    22.1038     4.0000 </r>
       <r>   -21.8703     0.0000     4.0000 </r>
       <r>   -21.7798     2.1512     4.1946 </r>
       <r>   -21.6893    41.0787     9.7169 </r>
       <r>   -21.5988    44.1350    13.9934 </r>
       <r>   -21.5083     0.0000    14.0000 </r>
       <r>   -21.4179     0.0000    14.0000 </r>
       <r>   -21.3274     0.0000    14.0000 </r>
       <r>   -21.2369     9.1006    14.8234 </r>
       <r>   -21.1464     0.0000    16.0000 </r>
       <r>   -21.0559    20.5779    17.8619 </r>
       <r>   -20.9655    39.1279    21.5403 </r>
       <r>   -20.8750    33.8889    25.0663 </r>
       <r>   -20.7845     0.0000    26.0000 </r>
       <r>   -20.6940    41.8852    29.7898 </r>
       <r>   -20.6035    24.0624    32.1772 </r>
       <r>   -20.5131    22.1040    36.0000 </r>
       <r>   -20.4226    16.6075    37.5027 </r>
       <r>   -20.3321     0.0000    38.0000 </r>
       <r>   -20.2416     0.0000    38.0000 </r>
       <r>   -20.1511     0.0000    38.0000 </r>
       <r>   -20.0606     0.0000    38.0000 </r>
       <r>   -19.9702    19.1860    39.7360 </r>
       <r>   -19.8797    22.1040    42.0000 </r>
       <r>   -19.7892    21.3530    43.9320 </r>
       <r>   -19.6987    97.8690    52.8560 </r>
       <r>   -19.6082    66.2832    59.9974 </r>
       <r>   -19.5178     0.0125    60.0011 </r>
       <r>   -19.4273    22.2119    62.0109 </r>
       <r>   -19.3368    66.1579    67.9969 </r>
       <r>   -19.2463    24.4226    70.2098 </r>
       <r>   -19.1558     0.0000    72.0000 </r>
       <r>   -19.0654    22.1040    74.0000 </r>
       <r>   -18.9749    22.1000    75.9996 </r>
       <r>   -18.8844    28.2543    78.5565 </r>
       <r>   -18.7939    44.2085    84.0001 </r>
       <r>   -18.7034    89.0071    92.0535 </r>
       <r>   -18.6129     0.0000    94.0000 </r>
       <r>   -18.5225     0.0000    94.0000 </r>
       <r>   -18.4320    21.0556    95.9051 </r>
       <r>   -18.3415     0.0000    96.0000 </r>
       <r>   -18.2510     0.0000    96.0000 </r>
       <r>   -18.1605     0.0000    96.0000 </r>
       <r>   -18.0701     0.0000    96.0000 </r>
       <r>   -17.9796     0.0000    96.0000 </r>
       <r>   -17.8891     0.0000    96.0000 </r>
       <r>   -17.7986     0.0000    96.0000 </r>
       <r>   -17.7081     0.0000    96.0000 </r>
       <r>   -17.6177     0.0000    96.0000 </r>
       <r>   -17.5272     0.0000    96.0000 </r>
       <r>   -17.4367     0.0000    96.0000 </r>
       <r>   -17.3462     0.0000    96.0000 </r>
       <r>   -17.2557     0.0000    96.0000 </r>
       <r>   -17.1653     0.0000    96.0000 </r>
       <r>   -17.0748     0.0000    96.0000 </r>
       <r>   -16.9843     0.0000    96.0000 </r>
       <r>   -16.8938     0.0000    96.0000 </r>
       <r>   -16.8033     0.0000    96.0000 </r>
       <r>   -16.7128     0.0000    96.0000 </r>
       <r>   -16.6224     0.0000    96.0000 </r>
       <r>   -16.5319     0.0000    96.0000 </r>
       <r>   -16.4414     0.0000    96.0000 </r>
       <r>   -16.3509     0.0000    96.0000 </r>
       <r>   -16.2604     0.0000    96.0000 </r>
       <r>   -16.1700     0.0000    96.0000 </r>
       <r>   -16.0795     0.0000    96.0000 </r>
       <r>   -15.9890     0.0000    96.0000 </r>
       <r>   -15.8985     0.0000    96.0000 </r>
       <r>   -15.8080     0.0000    96.0000 </r>
       <r>   -15.7176     0.0000    96.0000 </r>
       <r>   -15.6271     0.0000    96.0000 </r>
       <r>   -15.5366     0.0000    96.0000 </r>
       <r>   -15.4461     0.0000    96.0000 </r>
       <r>   -15.3556     0.0000    96.0000 </r>
       <r>   -15.2651     0.0000    96.0000 </r>
       <r>   -15.1747     0.0000    96.0000 </r>
       <r>   -15.0842     0.0000    96.0000 </r>
       <r>   -14.9937     0.0000    96.0000 </r>
       <r>   -14.9032     0.0000    96.0000 </r>
       <r>   -14.8127     0.0000    96.0000 </r>
       <r>   -14.7223     0.0000    96.0000 </r>
       <r>   -14.6318     0.0000    96.0000 </r>
       <r>   -14.5413     0.0000    96.0000 </r>
       <r>   -14.4508     0.0000    96.0000 </r>
       <r>   -14.3603     0.0000    96.0000 </r>
       <r>   -14.2699     0.0000    96.0000 </r>
       <r>   -14.1794     0.0000    96.0000 </r>
       <r>   -14.0889    22.1040    98.0000 </r>
       <r>   -13.9984     0.0000    98.0000 </r>
       <r>   -13.9079     0.0000    98.0000 </r>
       <r>   -13.8174     0.0000    98.0000 </r>
       <r>   -13.7270     0.0000    98.0000 </r>
       <r>   -13.6365     0.0000    98.0000 </r>
       <r>   -13.5460     0.0000    98.0000 </r>
       <r>   -13.4555     0.0000    98.0000 </r>
       <r>   -13.3650     0.0000    98.0000 </r>
       <r>   -13.2746     0.0000    98.0000 </r>
       <r>   -13.1841    12.1732    99.1014 </r>
       <r>   -13.0936    66.1109   105.9818 </r>
       <r>   -13.0031    42.7171   109.9506 </r>
       <r>   -12.9126    66.3039   115.9993 </r>
       <r>   -12.8222     0.1754   116.0159 </r>
       <r>   -12.7317    44.0327   120.0000 </r>
       <r>   -12.6412     0.0000   120.0000 </r>
       <r>   -12.5507    22.1040   122.0000 </r>
       <r>   -12.4602    44.2052   125.9997 </r>
       <r>   -12.3697    20.1828   127.8262 </r>
       <r>   -12.2793    44.0836   131.9887 </r>
       <r>   -12.1888     0.7697   132.0696 </r>
       <r>   -12.0983    21.3343   134.0000 </r>
       <r>   -12.0078     0.0000   134.0000 </r>
       <r>   -11.9173     0.2383   134.0216 </r>
       <r>   -11.8269    43.9697   138.0000 </r>
       <r>   -11.7364    84.1251   145.6117 </r>
       <r>   -11.6459    42.9986   149.8906 </r>
       <r>   -11.5554    22.0331   152.0389 </r>
       <r>   -11.4649    21.6737   154.0000 </r>
       <r>   -11.3745    22.1040   156.0000 </r>
       <r>   -11.2840     0.0000   156.0000 </r>
       <r>   -11.1935    16.6867   157.5098 </r>
       <r>   -11.1030    22.3136   160.0190 </r>
       <r>   -11.0125    43.9588   164.0000 </r>
       <r>   -10.9220    24.0249   166.1738 </r>
       <r>   -10.8316     0.0000   168.0000 </r>
       <r>   -10.7411     0.0000   168.0000 </r>
       <r>   -10.6506    22.1040   170.0000 </r>
       <r>   -10.5601     0.0000   170.0000 </r>
       <r>   -10.4696     2.4994   170.2261 </r>
       <r>   -10.3792    22.1067   174.0002 </r>
       <r>   -10.2887    22.1014   176.0000 </r>
       <r>   -10.1982    42.1317   179.8121 </r>
       <r>   -10.1077     0.0000   180.0000 </r>
       <r>   -10.0172     0.0000   180.0000 </r>
       <r>    -9.9268     0.0000   180.0000 </r>
       <r>    -9.8363    22.1040   182.0000 </r>
       <r>    -9.7458    43.6503   185.9495 </r>
       <r>    -9.6553    44.1557   189.9977 </r>
       <r>    -9.5648    22.1091   192.0005 </r>
       <r>    -9.4744    47.5486   196.3040 </r>
       <r>    -9.3839     0.0000   198.0000 </r>
       <r>    -9.2934    48.0809   202.3504 </r>
       <r>    -9.2029   178.9924   220.1954 </r>
       <r>    -9.1124    64.6400   229.8487 </r>
       <r>    -9.0219    22.0908   235.9988 </r>
       <r>    -8.9315    22.1031   238.0000 </r>
       <r>    -8.8410    15.8641   239.4354 </r>
       <r>    -8.7505    22.1040   242.0000 </r>
       <r>    -8.6600     3.0138   242.2727 </r>
       <r>    -8.5695     0.0000   244.0000 </r>
       <r>    -8.4791    36.0865   247.2652 </r>
       <r>    -8.3886    22.1040   250.0000 </r>
       <r>    -8.2981    22.1038   252.0000 </r>
       <r>    -8.2076    30.7887   254.7858 </r>
       <r>    -8.1171    61.8967   263.6005 </r>
       <r>    -8.0267    20.9958   265.8997 </r>
       <r>    -7.9362    43.8964   269.9718 </r>
       <r>    -7.8457    49.2683   274.4579 </r>
       <r>    -7.7552    66.4441   282.0119 </r>
       <r>    -7.6647   116.6042   292.5624 </r>
       <r>    -7.5742    44.2064   298.0000 </r>
       <r>    -7.4838     0.0000   298.0000 </r>
       <r>    -7.3933    71.0356   304.4274 </r>
       <r>    -7.3028    22.1041   308.0000 </r>
       <r>    -7.2123    22.1039   310.0000 </r>
       <r>    -7.1218     0.0000   310.0000 </r>
       <r>    -7.0314     0.0000   310.0000 </r>
       <r>    -6.9409     0.0000   310.0000 </r>
       <r>    -6.8504     0.0981   310.0089 </r>
       <r>    -6.7599    30.1712   312.7388 </r>
       <r>    -6.6694     0.0000   314.0000 </r>
       <r>    -6.5790    44.2053   317.9997 </r>
       <r>    -6.4885    75.7868   324.8573 </r>
       <r>    -6.3980   128.3965   337.6175 </r>
       <r>    -6.3075    64.6211   343.8470 </r>
       <r>    -6.2170     0.0000   344.0000 </r>
       <r>    -6.1265     0.3555   344.0322 </r>
       <r>    -6.0361    21.7486   346.0000 </r>
       <r>    -5.9456    22.1361   348.0029 </r>
       <r>    -5.8551    85.3595   355.7265 </r>
       <r>    -5.7646    43.3380   359.9213 </r>
       <r>    -5.6741     0.0000   360.0000 </r>
       <r>    -5.5837     0.0000   360.0000 </r>
       <r>    -5.4932    22.1040   362.0000 </r>
       <r>    -5.4027     0.0000   362.0000 </r>
       <r>    -5.3122     0.0000   362.0000 </r>
       <r>    -5.2217     7.5501   362.6831 </r>
       <r>    -5.1313    79.1752   371.1644 </r>
       <r>    -5.0408    22.1019   374.0000 </r>
       <r>    -4.9503    28.8907   376.6141 </r>
       <r>    -4.8598    66.3121   384.0000 </r>
       <r>    -4.7693     0.0000   384.0000 </r>
       <r>    -4.6788    22.1040   386.0000 </r>
       <r>    -4.5884     0.0000   386.0000 </r>
       <r>    -4.4979     0.0000   386.0000 </r>
       <r>    -4.4074     0.0000   386.0000 </r>
       <r>    -4.3169     0.0000   386.0000 </r>
       <r>    -4.2264     0.0000   386.0000 </r>
       <r>    -4.1360     0.0000   386.0000 </r>
       <r>    -4.0455     0.0000   386.0000 </r>
       <r>    -3.9550     0.0000   386.0000 </r>
       <r>    -3.8645     0.0000   386.0000 </r>
       <r>    -3.7740     0.0000   386.0000 </r>
       <r>    -3.6836     0.0000   386.0000 </r>
       <r>    -3.5931     0.0000   386.0000 </r>
       <r>    -3.5026     0.0000   386.0000 </r>
       <r>    -3.4121     0.0000   386.0000 </r>
       <r>    -3.3216     0.0000   386.0000 </r>
       <r>    -3.2311     0.0000   386.0000 </r>
       <r>    -3.1407     0.0000   386.0000 </r>
       <r>    -3.0502     0.0000   386.0000 </r>
       <r>    -2.9597     0.0000   386.0000 </r>
       <r>    -2.8692     0.0000   386.0000 </r>
       <r>    -2.7787     0.0000   386.0000 </r>
       <r>    -2.6883     0.0000   386.0000 </r>
       <r>    -2.5978     0.0000   386.0000 </r>
       <r>    -2.5073     0.0000   386.0000 </r>
       <r>    -2.4168     0.0000   386.0000 </r>
       <r>    -2.3263     0.0000   386.0000 </r>
       <r>    -2.2359     0.0000   386.0000 </r>
       <r>    -2.1454     0.0000   386.0000 </r>
       <r>    -2.0549     0.0000   386.0000 </r>
       <r>    -1.9644     0.0000   386.0000 </r>
       <r>    -1.8739     0.0000   386.0000 </r>
       <r>    -1.7834     0.0000   386.0000 </r>
       <r>    -1.6930     0.0000   386.0000 </r>
       <r>    -1.6025     0.0000   386.0000 </r>
       <r>    -1.5120     0.0000   386.0000 </r>
       <r>    -1.4215     0.0000   386.0000 </r>
       <r>    -1.3310     0.0912   386.0083 </r>
       <r>    -1.2406    22.0128   388.0000 </r>
       <r>    -1.1501    22.1040   390.0000 </r>
       <r>    -1.0596     0.0000   390.0000 </r>
       <r>    -0.9691     0.0000   390.0000 </r>
       <r>    -0.8786     0.0000   390.0000 </r>
       <r>    -0.7882     0.0000   390.0000 </r>
       <r>    -0.6977     0.0000   390.0000 </r>
       <r>    -0.6072     0.0000   390.0000 </r>
       <r>    -0.5167     0.0000   390.0000 </r>
       <r>    -0.4262     0.0000   390.0000 </r>
       <r>    -0.3358     0.0000   390.0000 </r>
       <r>    -0.2453     0.0000   390.0000 </r>
       <r>    -0.1548     0.0000   390.0000 </r>
       <r>    -0.0643     0.0000   390.0000 </r>
       <r>     0.0262     0.0000   390.0000 </r>
       <r>     0.1167    22.1040   392.0000 </r>
       <r>     0.2071    14.0010   393.2668 </r>
       <r>     0.2976    77.5272   401.0148 </r>
       <r>     0.3881    27.1611   406.4576 </r>
       <r>     0.4786    32.1471   410.9087 </r>
       <r>     0.5691    22.1040   414.0000 </r>
       <r>     0.6595    22.1040   416.0000 </r>
       <r>     0.7500    28.1255   418.5448 </r>
       <r>     0.8405   101.5884   429.1919 </r>
       <r>     0.9310    44.0603   434.0000 </r>
       <r>     1.0215    34.5552   437.1266 </r>
       <r>     1.1119    26.0102   440.3534 </r>
       <r>     1.2024     0.0000   442.0000 </r>
       <r>     1.2929     0.0000   442.0000 </r>
       <r>     1.3834     0.0000   442.0000 </r>
       <r>     1.4739     0.0273   442.0025 </r>
       <r>     1.5644    22.0767   444.0000 </r>
       <r>     1.6548     0.1038   444.0094 </r>
       <r>     1.7453   118.0465   454.6904 </r>
       <r>     1.8358    47.0962   460.2613 </r>
       <r>     1.9263   115.7939   472.5948 </r>
       <r>     2.0168    22.6956   476.0535 </r>
       <r>     2.1072    41.5306   479.8113 </r>
       <r>     2.1977    66.2746   488.0000 </r>
       <r>     2.2882     0.0000   488.0000 </r>
       <r>     2.3787     0.0000   488.0000 </r>
       <r>     2.4692     0.0000   488.0000 </r>
       <r>     2.5596     0.0000   488.0000 </r>
       <r>     2.6501     0.0000   488.0000 </r>
       <r>     2.7406     0.0000   488.0000 </r>
       <r>     2.8311     0.0000   488.0000 </r>
       <r>     2.9216     0.0000   488.0000 </r>
       <r>     3.0121     0.0000   488.0000 </r>
       <r>     3.1025     0.0000   488.0000 </r>
       <r>     3.1930     0.0000   488.0000 </r>
       <r>     3.2835     0.0000   488.0000 </r>
       <r>     3.3740     0.0000   488.0000 </r>
      </set>
     </set>
    </array>
   </total>
  </dos>
 </calculation>
 <structure name="finalpos" >
  <crystal>
   <varray name="basis" >
    <v>      17.59966831       0.00000000       0.00000000 </v>
    <v>      -8.79983416      15.24175986       0.00000000 </v>
    <v>       0.00000000       0.00000000      19.92151445 </v>
   </varray>
   <i name="volume">   5343.94461817 </i>
   <varray name="rec_basis" >
    <v>       0.05681925       0.03280461       0.00000000 </v>
    <v>       0.00000000       0.06560922       0.00000000 </v>
    <v>       0.00000000       0.00000000       0.05019699 </v>
   </varray>
  </crystal>
  <varray name="positions" >
   <v>       0.99943010       0.00005992       0.50000000 </v>
   <v>       0.14164706       0.99871895       0.50000000 </v>
   <v>       0.28492260       0.99841663       0.50000000 </v>
   <v>       0.42850047       0.99871895       0.50000000 </v>
   <v>       0.57205839       0.00005992       0.50000000 </v>
   <v>       0.71530655       0.00214292       0.50000000 </v>
   <v>       0.85826494       0.00214292       0.50000000 </v>
   <v>       0.00080792       0.14408264       0.50000000 </v>
   <v>       0.14259355       0.14244783       0.50000000 </v>
   <v>       0.28470221       0.14112972       0.50000000 </v>
   <v>       0.42785608       0.14112972       0.50000000 </v>
   <v>       0.57128286       0.14244783       0.50000000 </v>
   <v>       0.71470329       0.14408264       0.50000000 </v>
   <v>       0.85805263       0.14467669       0.50000000 </v>
   <v>       0.00095476       0.28713011       0.50000000 </v>
   <v>       0.14372552       0.28645370       0.50000000 </v>
   <v>       0.28540977       0.28412554       0.50000000 </v>
   <v>       0.42724431       0.28306005       0.50000000 </v>
   <v>       0.57071254       0.28469374       0.50000000 </v>
   <v>       0.71415674       0.28645370       0.50000000 </v>
   <v>       0.85760392       0.28713011       0.50000000 </v>
   <v>       0.00054479       0.42966101       0.50000000 </v>
   <v>       0.14422690       0.42957551       0.50000000 </v>
   <v>       0.28730213       0.42918005       0.50000000 </v>
   <v>       0.42797654       0.42569726       0.50000000 </v>
   <v>       0.56914930       0.42569726       0.50000000 </v>
   <v>       0.71330650       0.42918005       0.50000000 </v>
   <v>       0.85677719       0.42957551       0.50000000 </v>
   <v>       0.99928255       0.57181462       0.50000000 </v>
   <v>       0.14396064       0.57181462       0.50000000 </v>
   <v>       0.28862787       0.57181625       0.50000000 </v>
   <v>       0.43313209       0.57215564       0.50000000 </v>
   <v>       0.71045212       0.57215564       0.50000000 </v>
   <v>       0.85461695       0.57181625       0.50000000 </v>
   <v>       0.99707234       0.71370518       0.50000000 </v>
   <v>       0.14255519       0.71368182       0.50000000 </v>
   <v>       0.28806142       0.71370518       0.50000000 </v>
   <v>       0.43464191       0.71382540       0.50000000 </v>
   <v>       0.58510826       0.71626937       0.50000000 </v>
   <v>       0.70258968       0.71626937       0.50000000 </v>
   <v>       0.85061206       0.71382540       0.50000000 </v>
   <v>       0.99777175       0.85613493       0.50000000 </v>
   <v>       0.14160898       0.85591288       0.50000000 </v>
   <v>       0.28573247       0.85591288       0.50000000 </v>
   <v>       0.42979175       0.85613493       0.50000000 </v>
   <v>       0.57342541       0.85758690       0.50000000 </v>
   <v>       0.71640633       0.86138410       0.50000000 </v>
   <v>       0.85559006       0.85758690       0.50000000 </v>
   <v>       0.04754270       0.09547788       0.50000000 </v>
   <v>       0.18957833       0.09405657       0.50000000 </v>
   <v>       0.33254182       0.09365506       0.50000000 </v>
   <v>       0.47590681       0.09405657       0.50000000 </v>
   <v>       0.61936376       0.09547788       0.50000000 </v>
   <v>       0.76280004       0.09719274       0.50000000 </v>
   <v>       0.90582126       0.09719274       0.50000000 </v>
   <v>       0.04854983       0.23934281       0.50000000 </v>
   <v>       0.19048138       0.23782962       0.50000000 </v>
   <v>       0.33234878       0.23634667       0.50000000 </v>
   <v>       0.47542646       0.23634667       0.50000000 </v>
   <v>       0.61877681       0.23782962       0.50000000 </v>
   <v>       0.76222155       0.23934281       0.50000000 </v>
   <v>       0.90562797       0.23982737       0.50000000 </v>
   <v>       0.04871288       0.38232824       0.50000000 </v>
   <v>       0.19188940       0.38184213       0.50000000 </v>
   <v>       0.33352206       0.38013969       0.50000000 </v>
   <v>       0.47472270       0.37801683       0.50000000 </v>
   <v>       0.61804620       0.38013969       0.50000000 </v>
   <v>       0.76138130       0.38184213       0.50000000 </v>
   <v>       0.90504393       0.38232824       0.50000000 </v>
   <v>       0.04810654       0.52478452       0.50000000 </v>
   <v>       0.19263929       0.52476864       0.50000000 </v>
   <v>       0.33696521       0.52455433       0.50000000 </v>
   <v>       0.47833704       0.52146721       0.50000000 </v>
   <v>       0.61455874       0.52146721       0.50000000 </v>
   <v>       0.75901769       0.52455433       0.50000000 </v>
   <v>       0.90355792       0.52476864       0.50000000 </v>
   <v>       0.04642473       0.66685228       0.50000000 </v>
   <v>       0.19185612       0.66685228       0.50000000 </v>
   <v>       0.33777931       0.66688794       0.50000000 </v>
   <v>       0.48615700       0.66710760       0.50000000 </v>
   <v>       0.75237918       0.66710760       0.50000000 </v>
   <v>       0.90053720       0.66688794       0.50000000 </v>
   <v>       0.04582562       0.80879365       0.50000000 </v>
   <v>       0.19009580       0.80876303       0.50000000 </v>
   <v>       0.33439660       0.80879365       0.50000000 </v>
   <v>       0.47844872       0.80897069       0.50000000 </v>
   <v>       0.62209487       0.81129474       0.50000000 </v>
   <v>       0.76062845       0.81129474       0.50000000 </v>
   <v>       0.90195054       0.80897069       0.50000000 </v>
   <v>       0.04629157       0.95154386       0.50000000 </v>
   <v>       0.18948291       0.95113037       0.50000000 </v>
   <v>       0.33307603       0.95113037       0.50000000 </v>
   <v>       0.47668087       0.95154386       0.50000000 </v>
   <v>       0.62015751       0.95313740       0.50000000 </v>
   <v>       0.76355772       0.95568687       0.50000000 </v>
   <v>       0.90440847       0.95313740       0.50000000 </v>
   <v>       0.56830873       0.56518888       0.50000000 </v>
  </varray>
 </structure>
</modeling>
