<?xml version="1.0" encoding="ISO-8859-1"?>
<modeling>
 <generator>
  <i name="program" type="string">vasp </i>
  <i name="version" type="string">5.4.4.18Apr17-6-g9f103f2a35  </i>
  <i name="subversion" type="string">(build Oct 18 2020 22:16:12) gamma-only         parallel </i>
  <i name="platform" type="string">UA-vaughan-2020a </i>
  <i name="date" type="string">2023 03 21 </i>
  <i name="time" type="string">17:34:17 </i>
 </generator>
 <incar>
  <i type="string" name="PREC">accurate</i>
  <i type="int" name="IALGO">    38</i>
  <i type="logical" name="ADDGRID"> T  </i>
  <i type="int" name="NELMIN">     5</i>
  <i type="int" name="IBRION">    -1</i>
  <i name="EDIFF">      0.00000001</i>
  <i name="EDIFFG">     -0.00000001</i>
  <i type="int" name="NSW">     0</i>
  <i type="int" name="ISIF">     2</i>
  <i name="ENCUT">    500.00000000</i>
  <i type="logical" name="LREAL"> F  </i>
  <i type="int" name="ISMEAR">     0</i>
  <i name="SIGMA">      0.01000000</i>
  <i type="logical" name="LWAVE"> F  </i>
  <i type="logical" name="LCHARG"> F  </i>
  <v type="int" name="KPOINT_BSE">    -1     0     0     0</v>
 </incar>
 <structure name="primitive_cell" >
  <crystal>
   <varray name="basis" >
    <v>      17.59966831       0.00000000       0.00000000 </v>
    <v>      -8.79983416      15.24175986       0.00000000 </v>
    <v>       0.00000000       0.00000000      19.92151445 </v>
   </varray>
   <i name="volume">   5343.94461817 </i>
   <varray name="rec_basis" >
    <v>       0.05681925       0.03280461       0.00000000 </v>
    <v>       0.00000000       0.06560922       0.00000000 </v>
    <v>       0.00000000       0.00000000       0.05019699 </v>
   </varray>
  </crystal>
  <varray name="positions" >
   <v>      -0.00056990       0.00005992      -0.50000000 </v>
   <v>      -0.09559153      -0.04686260      -0.50000000 </v>
   <v>       0.04629157      -0.04845614      -0.50000000 </v>
   <v>       0.04754270       0.09547788      -0.50000000 </v>
   <v>      -0.14173506       0.00214292      -0.50000000 </v>
   <v>       0.14259355       0.14244783      -0.50000000 </v>
   <v>      -0.00222825      -0.14386507      -0.50000000 </v>
   <v>      -0.14440994      -0.14241310      -0.50000000 </v>
   <v>       0.14164706      -0.00184924      -0.50000000 </v>
   <v>       0.00080792       0.14408264      -0.50000000 </v>
   <v>       0.18957833       0.09405657      -0.50000000 </v>
   <v>      -0.09417874       0.09719274      -0.50000000 </v>
   <v>      -0.09804946      -0.19102931      -0.50000000 </v>
   <v>      -0.23644228      -0.04431313      -0.50000000 </v>
   <v>      -0.23937155      -0.18870526      -0.50000000 </v>
   <v>       0.19048138       0.23782962      -0.50000000 </v>
   <v>       0.04582562      -0.19120635      -0.50000000 </v>
   <v>       0.18948291      -0.04886963      -0.50000000 </v>
   <v>       0.04854983       0.23934281      -0.50000000 </v>
   <v>      -0.28359367      -0.13861590      -0.50000000 </v>
   <v>       0.28470221       0.14112972      -0.50000000 </v>
   <v>      -0.14194737       0.14467669      -0.50000000 </v>
   <v>      -0.14938794      -0.28617460      -0.50000000 </v>
   <v>       0.14160898      -0.14408712      -0.50000000 </v>
   <v>       0.14372552       0.28645370      -0.50000000 </v>
   <v>      -0.28469345       0.00214292      -0.50000000 </v>
   <v>      -0.00292766      -0.28629482      -0.50000000 </v>
   <v>       0.28540977       0.28469374      -0.50000000 </v>
   <v>       0.00095476       0.28713011      -0.50000000 </v>
   <v>       0.28492260      -0.00158337      -0.50000000 </v>
   <v>      -0.29741032      -0.28373063      -0.50000000 </v>
   <v>      -0.09946280      -0.33311206      -0.50000000 </v>
   <v>       0.33234878       0.23634667      -0.50000000 </v>
   <v>      -0.23719996       0.09719274      -0.50000000 </v>
   <v>       0.33254182       0.09365506      -0.50000000 </v>
   <v>      -0.09437203       0.23982737      -0.50000000 </v>
   <v>      -0.24762082      -0.33289240      -0.50000000 </v>
   <v>      -0.37790513      -0.18870526      -0.50000000 </v>
   <v>       0.19188940       0.38184213      -0.50000000 </v>
   <v>       0.19009580      -0.19123697      -0.50000000 </v>
   <v>      -0.37984249      -0.04686260      -0.50000000 </v>
   <v>       0.04642473      -0.33314772      -0.50000000 </v>
   <v>       0.33352206       0.38013969      -0.50000000 </v>
   <v>       0.04871288       0.38232824      -0.50000000 </v>
   <v>       0.33307603      -0.04886963      -0.50000000 </v>
   <v>      -0.41489174      -0.28373063      -0.50000000 </v>
   <v>      -0.42657459      -0.14241310      -0.50000000 </v>
   <v>       0.42724431       0.28306005      -0.50000000 </v>
   <v>      -0.14538305      -0.42818375      -0.50000000 </v>
   <v>      -0.28529671       0.14408264      -0.50000000 </v>
   <v>      -0.28954788      -0.42784436      -0.50000000 </v>
   <v>       0.42785608       0.14112972      -0.50000000 </v>
   <v>      -0.14239608       0.28713011      -0.50000000 </v>
   <v>       0.14422690       0.42957551      -0.50000000 </v>
   <v>       0.28730213       0.42918005      -0.50000000 </v>
   <v>       0.14255519      -0.28631818      -0.50000000 </v>
   <v>       0.28573247      -0.14408712      -0.50000000 </v>
   <v>      -0.24098231      -0.47544567      -0.50000000 </v>
   <v>       0.47542646       0.23634667      -0.50000000 </v>
   <v>      -0.23777845       0.23934281      -0.50000000 </v>
   <v>       0.42797654       0.42569726      -0.50000000 </v>
   <v>      -0.42794161       0.00005992      -0.50000000 </v>
   <v>      -0.00071745      -0.42818538      -0.50000000 </v>
   <v>       0.00054479       0.42966101      -0.50000000 </v>
   <v>       0.42850047      -0.00128105      -0.50000000 </v>
   <v>      -0.43169127      -0.43481112      -0.50000000 </v>
   <v>       0.47472270       0.37801683      -0.50000000 </v>
   <v>      -0.09644208      -0.47523136      -0.50000000 </v>
   <v>      -0.38063624       0.09547788      -0.50000000 </v>
   <v>       0.47590681       0.09405657      -0.50000000 </v>
   <v>      -0.09495607       0.38232824      -0.50000000 </v>
   <v>      -0.38544126      -0.47853279      -0.50000000 </v>
   <v>       0.48615700      -0.33289240      -0.50000000 </v>
   <v>       0.47844872      -0.19102931      -0.50000000 </v>
   <v>       0.19263929      -0.47523136      -0.50000000 </v>
   <v>       0.33696521      -0.47544567      -0.50000000 </v>
   <v>       0.19185612      -0.33314772      -0.50000000 </v>
   <v>       0.33439660      -0.19120635      -0.50000000 </v>
   <v>       0.43464191      -0.28617460      -0.50000000 </v>
   <v>      -0.28669350       0.42918005      -0.50000000 </v>
   <v>      -0.42928746       0.28469374      -0.50000000 </v>
   <v>      -0.28584326       0.28645370      -0.50000000 </v>
   <v>       0.28862787      -0.42818375      -0.50000000 </v>
   <v>       0.28806142      -0.28629482      -0.50000000 </v>
   <v>       0.47668087      -0.04845614      -0.50000000 </v>
   <v>       0.47833704      -0.47853279      -0.50000000 </v>
   <v>       0.04810654      -0.47521548      -0.50000000 </v>
   <v>       0.43313209      -0.42784436      -0.50000000 </v>
   <v>       0.42979175      -0.14386507      -0.50000000 </v>
   <v>      -0.43085070       0.42569726      -0.50000000 </v>
   <v>      -0.14322281       0.42957551      -0.50000000 </v>
   <v>      -0.42871714       0.14244783      -0.50000000 </v>
   <v>       0.14396064      -0.42818538      -0.50000000 </v>
   <v>      -0.23861870       0.38184213      -0.50000000 </v>
   <v>      -0.38122319       0.23782962      -0.50000000 </v>
   <v>      -0.38195380       0.38013969      -0.50000000 </v>
   <v>       0.33777931      -0.33311206      -0.50000000 </v>
  </varray>
 </structure>
 <varray name="primitive_index" >
  <v type="int" >        1 </v>
  <v type="int" >       96 </v>
  <v type="int" >       90 </v>
  <v type="int" >       49 </v>
  <v type="int" >        7 </v>
  <v type="int" >        9 </v>
  <v type="int" >       42 </v>
  <v type="int" >       48 </v>
  <v type="int" >        2 </v>
  <v type="int" >        8 </v>
  <v type="int" >       50 </v>
  <v type="int" >       55 </v>
  <v type="int" >       89 </v>
  <v type="int" >       95 </v>
  <v type="int" >       88 </v>
  <v type="int" >       57 </v>
  <v type="int" >       83 </v>
  <v type="int" >       91 </v>
  <v type="int" >       56 </v>
  <v type="int" >       47 </v>
  <v type="int" >       10 </v>
  <v type="int" >       14 </v>
  <v type="int" >       41 </v>
  <v type="int" >       43 </v>
  <v type="int" >       16 </v>
  <v type="int" >        6 </v>
  <v type="int" >       35 </v>
  <v type="int" >       17 </v>
  <v type="int" >       15 </v>
  <v type="int" >        3 </v>
  <v type="int" >       40 </v>
  <v type="int" >       82 </v>
  <v type="int" >       58 </v>
  <v type="int" >       54 </v>
  <v type="int" >       51 </v>
  <v type="int" >       62 </v>
  <v type="int" >       81 </v>
  <v type="int" >       87 </v>
  <v type="int" >       64 </v>
  <v type="int" >       84 </v>
  <v type="int" >       94 </v>
  <v type="int" >       77 </v>
  <v type="int" >       65 </v>
  <v type="int" >       63 </v>
  <v type="int" >       92 </v>
  <v type="int" >       39 </v>
  <v type="int" >       46 </v>
  <v type="int" >       18 </v>
  <v type="int" >       34 </v>
  <v type="int" >       13 </v>
  <v type="int" >       33 </v>
  <v type="int" >       11 </v>
  <v type="int" >       21 </v>
  <v type="int" >       23 </v>
  <v type="int" >       24 </v>
  <v type="int" >       36 </v>
  <v type="int" >       44 </v>
  <v type="int" >       75 </v>
  <v type="int" >       59 </v>
  <v type="int" >       61 </v>
  <v type="int" >       25 </v>
  <v type="int" >        5 </v>
  <v type="int" >       29 </v>
  <v type="int" >       22 </v>
  <v type="int" >        4 </v>
  <v type="int" >       97 </v>
  <v type="int" >       66 </v>
  <v type="int" >       76 </v>
  <v type="int" >       53 </v>
  <v type="int" >       52 </v>
  <v type="int" >       69 </v>
  <v type="int" >       74 </v>
  <v type="int" >       80 </v>
  <v type="int" >       86 </v>
  <v type="int" >       71 </v>
  <v type="int" >       72 </v>
  <v type="int" >       78 </v>
  <v type="int" >       85 </v>
  <v type="int" >       38 </v>
  <v type="int" >       27 </v>
  <v type="int" >       19 </v>
  <v type="int" >       20 </v>
  <v type="int" >       31 </v>
  <v type="int" >       37 </v>
  <v type="int" >       93 </v>
  <v type="int" >       73 </v>
  <v type="int" >       70 </v>
  <v type="int" >       32 </v>
  <v type="int" >       45 </v>
  <v type="int" >       26 </v>
  <v type="int" >       28 </v>
  <v type="int" >       12 </v>
  <v type="int" >       30 </v>
  <v type="int" >       68 </v>
  <v type="int" >       60 </v>
  <v type="int" >       67 </v>
  <v type="int" >       79 </v>
 </varray>
 <kpoints>
  <generation param="Gamma">
   <v type="int" name="divisions">       1        1        1 </v>
   <v name="usershift">      0.00000000       0.00000000       0.00000000 </v>
   <v name="genvec1">      1.00000000      -0.00000000       0.00000000 </v>
   <v name="genvec2">      0.00000000       1.00000000       0.00000000 </v>
   <v name="genvec3">      0.00000000       0.00000000       1.00000000 </v>
   <v name="shift">      0.00000000       0.00000000       0.00000000 </v>
  </generation>
  <varray name="kpointlist" >
   <v>       0.00000000       0.00000000       0.00000000 </v>
  </varray>
  <varray name="weights" >
   <v>       1.00000000 </v>
  </varray>
 </kpoints>
 <parameters>
  <separator name="general" >
   <i type="string" name="SYSTEM">unknown system</i>
   <i type="logical" name="LCOMPAT"> F  </i>
  </separator>
  <separator name="electronic" >
   <i type="string" name="PREC">accura</i>
   <i name="ENMAX">    500.00000000</i>
   <i name="ENAUG">    644.87300000</i>
   <i name="EDIFF">      0.00000001</i>
   <i type="int" name="IALGO">    38</i>
   <i type="int" name="IWAVPR">    10</i>
   <i type="int" name="NBANDS">   244</i>
   <i name="NELECT">    388.00000000</i>
   <i type="int" name="TURBO">     0</i>
   <i type="int" name="IRESTART">     0</i>
   <i type="int" name="NREBOOT">     0</i>
   <i type="int" name="NMIN">     0</i>
   <i name="EREF">      0.00000000</i>
   <separator name="electronic smearing" >
    <i type="int" name="ISMEAR">     0</i>
    <i name="SIGMA">      0.01000000</i>
    <i name="KSPACING">      0.50000000</i>
    <i type="logical" name="KGAMMA"> T  </i>
   </separator>
   <separator name="electronic projectors" >
    <i type="logical" name="LREAL"> F  </i>
    <v name="ROPT">      0.00000000      0.00000000      0.00000000</v>
    <i type="int" name="LMAXPAW">  -100</i>
    <i type="int" name="LMAXMIX">     2</i>
    <i type="logical" name="NLSPLINE"> F  </i>
   </separator>
   <separator name="electronic startup" >
    <i type="int" name="ISTART">     0</i>
    <i type="int" name="ICHARG">     2</i>
    <i type="int" name="INIWAV">     1</i>
   </separator>
   <separator name="electronic spin" >
    <i type="int" name="ISPIN">     1</i>
    <i type="logical" name="LNONCOLLINEAR"> F  </i>
    <v name="MAGMOM">      1.00000000      1.00000000      1.00000000      1.00000000      1.00000000      1.00000000      1.00000000      1.00000000      1.00000000      1.00000000      1.00000000      1.00000000      1.00000000      1.00000000      1.00000000      1.00000000      1.00000000      1.00000000      1.00000000      1.00000000
      1.00000000      1.00000000      1.00000000      1.00000000      1.00000000      1.00000000      1.00000000      1.00000000      1.00000000      1.00000000      1.00000000      1.00000000      1.00000000      1.00000000      1.00000000      1.00000000      1.00000000      1.00000000      1.00000000      1.00000000
      1.00000000      1.00000000      1.00000000      1.00000000      1.00000000      1.00000000      1.00000000      1.00000000      1.00000000      1.00000000      1.00000000      1.00000000      1.00000000      1.00000000      1.00000000      1.00000000      1.00000000      1.00000000      1.00000000      1.00000000
      1.00000000      1.00000000      1.00000000      1.00000000      1.00000000      1.00000000      1.00000000      1.00000000      1.00000000      1.00000000      1.00000000      1.00000000      1.00000000      1.00000000      1.00000000      1.00000000      1.00000000      1.00000000      1.00000000      1.00000000
      1.00000000      1.00000000      1.00000000      1.00000000      1.00000000      1.00000000      1.00000000      1.00000000      1.00000000      1.00000000      1.00000000      1.00000000      1.00000000      1.00000000      1.00000000      1.00000000      1.00000000</v>
    <i name="NUPDOWN">     -1.00000000</i>
    <i type="logical" name="LSORBIT"> F  </i>
    <v name="SAXIS">      0.00000000      0.00000000      1.00000000</v>
    <i type="logical" name="LSPIRAL"> F  </i>
    <v name="QSPIRAL">      0.00000000      0.00000000      0.00000000</v>
    <i type="logical" name="LZEROZ"> F  </i>
   </separator>
   <separator name="electronic exchange-correlation" >
    <i type="logical" name="LASPH"> F  </i>
    <i type="logical" name="LMETAGGA"> F  </i>
   </separator>
   <separator name="electronic convergence" >
    <i type="int" name="NELM">    60</i>
    <i type="int" name="NELMDL">    -5</i>
    <i type="int" name="NELMIN">     5</i>
    <i name="ENINI">    500.00000000</i>
    <separator name="electronic convergence detail" >
     <i type="logical" name="LDIAG"> T  </i>
     <i type="logical" name="LSUBROT"> F  </i>
     <i name="WEIMIN">      0.00000000</i>
     <i name="EBREAK">      0.00000000</i>
     <i name="DEPER">      0.30000000</i>
     <i type="int" name="NRMM">     4</i>
     <i name="TIME">      0.40000000</i>
    </separator>
   </separator>
   <separator name="electronic mixer" >
    <i name="AMIX">      0.40000000</i>
    <i name="BMIX">      1.00000000</i>
    <i name="AMIN">      0.10000000</i>
    <i name="AMIX_MAG">      1.60000000</i>
    <i name="BMIX_MAG">      1.00000000</i>
    <separator name="electronic mixer details" >
     <i type="int" name="IMIX">     4</i>
     <i type="logical" name="MIXFIRST"> F  </i>
     <i type="int" name="MAXMIX">   -45</i>
     <i name="WC">    100.00000000</i>
     <i type="int" name="INIMIX">     1</i>
     <i type="int" name="MIXPRE">     1</i>
     <i type="int" name="MREMOVE">     5</i>
    </separator>
   </separator>
   <separator name="electronic dipolcorrection" >
    <i type="logical" name="LDIPOL"> F  </i>
    <i type="logical" name="LMONO"> F  </i>
    <i type="int" name="IDIPOL">     0</i>
    <i name="EPSILON">      1.00000000</i>
    <v name="DIPOL">   -100.00000000   -100.00000000   -100.00000000</v>
    <i name="EFIELD">      0.00000000</i>
   </separator>
  </separator>
  <separator name="grids" >
   <i type="int" name="NGX">   128</i>
   <i type="int" name="NGY">   128</i>
   <i type="int" name="NGZ">   150</i>
   <i type="int" name="NGXF">   256</i>
   <i type="int" name="NGYF">   256</i>
   <i type="int" name="NGZF">   300</i>
   <i type="logical" name="ADDGRID"> T  </i>
  </separator>
  <separator name="ionic" >
   <i type="int" name="NSW">     0</i>
   <i type="int" name="IBRION">    -1</i>
   <i type="int" name="MDALGO">     0</i>
   <i type="int" name="ISIF">     2</i>
   <i name="PSTRESS">      0.00000000</i>
   <i name="EDIFFG">     -0.00000001</i>
   <i type="int" name="NFREE">     0</i>
   <i name="POTIM">      0.50000000</i>
   <i name="SMASS">     -3.00000000</i>
   <i name="SCALEE">      1.00000000</i>
  </separator>
  <separator name="ionic md" >
   <i name="TEBEG">      0.00010000</i>
   <i name="TEEND">      0.00010000</i>
   <i type="int" name="NBLOCK">     1</i>
   <i type="int" name="KBLOCK">     1</i>
   <i type="int" name="NPACO">   256</i>
   <i name="APACO">     16.00000000</i>
  </separator>
  <separator name="symmetry" >
   <i type="int" name="ISYM">     2</i>
   <i name="SYMPREC">      0.00001000</i>
  </separator>
  <separator name="dos" >
   <i type="int" name="LORBIT">     0</i>
   <v name="RWIGS">     -1.00000000     -1.00000000     -1.00000000</v>
   <i type="int" name="NEDOS">   301</i>
   <i name="EMIN">     10.00000000</i>
   <i name="EMAX">    -10.00000000</i>
   <i name="EFERMI">      0.00000000</i>
  </separator>
  <separator name="writing" >
   <i type="int" name="NWRITE">     2</i>
   <i type="logical" name="LWAVE"> F  </i>
   <i type="logical" name="LDOWNSAMPLE"> F  </i>
   <i type="logical" name="LCHARG"> F  </i>
   <i type="logical" name="LPARD"> F  </i>
   <i type="logical" name="LVTOT"> F  </i>
   <i type="logical" name="LVHAR"> F  </i>
   <i type="logical" name="LELF"> F  </i>
   <i type="logical" name="LOPTICS"> F  </i>
   <v name="STM">      0.00000000      0.00000000      0.00000000      0.00000000      0.00000000      0.00000000      0.00000000</v>
  </separator>
  <separator name="performance" >
   <i type="int" name="NPAR">     4</i>
   <i type="int" name="NSIM">     4</i>
   <i type="int" name="NBLK">    -1</i>
   <i type="logical" name="LPLANE"> T  </i>
   <i type="logical" name="LSCALAPACK"> T  </i>
   <i type="logical" name="LSCAAWARE"> F  </i>
   <i type="logical" name="LSCALU"> F  </i>
   <i type="logical" name="LASYNC"> F  </i>
   <i type="logical" name="LORBITALREAL"> F  </i>
  </separator>
  <separator name="miscellaneous" >
   <i type="int" name="IDIOT">     3</i>
   <i type="int" name="ISPECIAL">     0</i>
   <i type="logical" name="LMUSIC"> F  </i>
   <v name="POMASS">     10.81100000     14.00100000     12.01100000</v>
   <v name="DARWINR">      0.00000000      0.00000000      0.00000000</v>
   <v name="DARWINV">      1.00000000      1.00000000      1.00000000</v>
   <i type="logical" name="LCORR"> T  </i>
  </separator>
  <i type="logical" name="GGA_COMPAT"> T  </i>
  <i type="logical" name="LBERRY"> F  </i>
  <i type="int" name="ICORELEVEL">     0</i>
  <i type="logical" name="LDAU"> F  </i>
  <i type="int" name="I_CONSTRAINED_M">     0</i>
  <separator name="electronic exchange-correlation" >
   <i type="string" name="GGA">--</i>
   <i type="int" name="VOSKOWN">     0</i>
   <i type="logical" name="LHFCALC"> F  </i>
   <i type="string" name="PRECFOCK"></i>
   <i type="logical" name="LSYMGRAD"> F  </i>
   <i type="logical" name="LHFONE"> F  </i>
   <i type="logical" name="LRHFCALC"> F  </i>
   <i type="logical" name="LTHOMAS"> F  </i>
   <i type="logical" name="LMODELHF"> F  </i>
   <i name="ENCUT4O">     -1.00000000</i>
   <i type="int" name="EXXOEP">     0</i>
   <i type="int" name="FOURORBIT">     0</i>
   <i name="AEXX">      0.00000000</i>
   <i name="HFALPHA">      0.00000000</i>
   <i name="MCALPHA">      0.00000000</i>
   <i name="ALDAX">      1.00000000</i>
   <i name="AGGAX">      1.00000000</i>
   <i name="ALDAC">      1.00000000</i>
   <i name="AGGAC">      1.00000000</i>
   <i type="int" name="NKREDX">     1</i>
   <i type="int" name="NKREDY">     1</i>
   <i type="int" name="NKREDZ">     1</i>
   <i type="logical" name="SHIFTRED"> F  </i>
   <i type="logical" name="ODDONLY"> F  </i>
   <i type="logical" name="EVENONLY"> F  </i>
   <i type="int" name="LMAXFOCK">     0</i>
   <i type="int" name="NMAXFOCKAE">     0</i>
   <i type="logical" name="LFOCKAEDFT"> F  </i>
   <i name="HFSCREEN">      0.00000000</i>
   <i name="HFSCREENC">      0.00000000</i>
   <i type="int" name="NBANDSGWLOW">     0</i>
  </separator>
  <separator name="vdW DFT" >
   <i type="logical" name="LUSE_VDW"> F  </i>
   <i name="Zab_VDW">     -0.84910000</i>
   <i name="PARAM1">      0.12340000</i>
   <i name="PARAM2">      1.00000000</i>
   <i name="PARAM3">      0.00000000</i>
  </separator>
  <separator name="model GW" >
   <i type="int" name="MODEL_GW">     0</i>
   <i name="MODEL_EPS0">     33.05532754</i>
   <i name="MODEL_ALPHA">      1.00000000</i>
  </separator>
  <separator name="linear response parameters" >
   <i type="logical" name="LEPSILON"> F  </i>
   <i type="logical" name="LRPA"> F  </i>
   <i type="logical" name="LNABLA"> F  </i>
   <i type="logical" name="LVEL"> F  </i>
   <i type="int" name="KINTER">     0</i>
   <i name="CSHIFT">      0.10000000</i>
   <i name="OMEGAMAX">     -1.00000000</i>
   <i name="DEG_THRESHOLD">      0.00200000</i>
   <i name="RTIME">     -0.10000000</i>
   <i name="WPLASMAI">      0.00000000</i>
   <v name="DFIELD">      0.00000000      0.00000000      0.00000000</v>
   <v name="WPLASMA">      0.00000000      0.00000000      0.00000000      0.00000000      0.00000000      0.00000000      0.00000000      0.00000000      0.00000000</v>
  </separator>
  <separator name="orbital magnetization" >
   <i type="logical" name="NUCIND"> F  </i>
   <v name="MAGPOS">      0.00000000      0.00000000      0.00000000</v>
   <i type="logical" name="LNICSALL"> T  </i>
   <i type="logical" name="ORBITALMAG"> F  </i>
   <i type="logical" name="LMAGBLOCH"> F  </i>
   <i type="logical" name="LCHIMAG"> F  </i>
   <i type="logical" name="LGAUGE"> T  </i>
   <i type="int" name="MAGATOM">     0</i>
   <v name="MAGDIPOL">      0.00000000      0.00000000      0.00000000</v>
   <v name="AVECCONST">      0.00000000      0.00000000      0.00000000</v>
  </separator>
  <separator name="response functions" >
   <i type="logical" name="LADDER"> F  </i>
   <i type="logical" name="LRPAFORCE"> F  </i>
   <i type="logical" name="LFXC"> F  </i>
   <i type="logical" name="LHARTREE"> T  </i>
   <i type="int" name="IBSE">     0</i>
   <v type="int" name="KPOINT">    -1     0     0     0</v>
   <i type="logical" name="LTCTE"> F  </i>
   <i type="logical" name="LTETE"> F  </i>
   <i type="logical" name="LTRIPLET"> F  </i>
   <i type="logical" name="LFXCEPS"> F  </i>
   <i type="logical" name="LFXHEG"> F  </i>
   <i type="int" name="NATURALO">     2</i>
   <i type="logical" name="L2ORDER"> F  </i>
   <i type="logical" name="LMP2LT"> F  </i>
   <i type="logical" name="LUSEW"> F  </i>
   <i name="ENCUTGW">     -2.00000000</i>
   <i name="ENCUTGWSOFT">     -2.00000000</i>
   <i name="ENCUTLF">     -1.00000000</i>
   <i type="int" name="LMAXMP2">    -1</i>
   <i name="SCISSOR">      0.00000000</i>
   <i type="int" name="NOMEGA">     0</i>
   <i type="int" name="NOMEGAR">     0</i>
   <i type="int" name="NBANDSGW">    -1</i>
   <i type="int" name="NBANDSO">    -1</i>
   <i type="int" name="NBANDSV">    -1</i>
   <i type="int" name="NELM">     1</i>
   <i type="int" name="NELMHF">     1</i>
   <i type="int" name="DIM">     3</i>
   <i type="int" name="ANTIRES">     0</i>
   <i name="OMEGAMAX">    -30.00000000</i>
   <i name="OMEGAMIN">    -30.00000000</i>
   <i name="OMEGATL">   -200.00000000</i>
   <i type="int" name="OMEGAGRID">   140</i>
   <i name="CSHIFT">     -0.10000000</i>
   <i type="logical" name="SELFENERGY"> F  </i>
   <i type="logical" name="LSPECTRAL"> F  </i>
   <i type="logical" name="LSPECTRALGW"> F  </i>
   <i type="logical" name="LSINGLES"> F  </i>
   <i type="logical" name="LFERMIGW"> F  </i>
   <i type="logical" name="ODDONLYGW"> F  </i>
   <i type="logical" name="EVENONLYGW"> F  </i>
   <i type="int" name="NKREDLFX">     1</i>
   <i type="int" name="NKREDLFY">     1</i>
   <i type="int" name="NKREDLFZ">     1</i>
   <i type="int" name="MAXMEM">  2800</i>
   <i type="int" name="TELESCOPE">     0</i>
   <i type="int" name="TAUPAR">     1</i>
   <i type="int" name="OMEGAPAR">    -1</i>
   <i name="LAMBDA">      1.00000000</i>
  </separator>
  <separator name="External order field" >
   <i name="OFIELD_KAPPA">      0.00000000</i>
   <v name="OFIELD_K">      0.00000000      0.00000000      0.00000000</v>
   <i name="OFIELD_Q6_NEAR">      0.00000000</i>
   <i name="OFIELD_Q6_FAR">      0.00000000</i>
   <i name="OFIELD_A">      0.00000000</i>
  </separator>
 </parameters>
 <atominfo>
  <atoms>      97 </atoms>
  <types>       3 </types>
  <array name="atoms" >
   <dimension dim="1">ion</dimension>
   <field type="string">element</field>
   <field type="int">atomtype</field>
   <set>
    <rc><c>B </c><c>   1</c></rc>
    <rc><c>B </c><c>   1</c></rc>
    <rc><c>B </c><c>   1</c></rc>
    <rc><c>B </c><c>   1</c></rc>
    <rc><c>B </c><c>   1</c></rc>
    <rc><c>B </c><c>   1</c></rc>
    <rc><c>B </c><c>   1</c></rc>
    <rc><c>B </c><c>   1</c></rc>
    <rc><c>B </c><c>   1</c></rc>
    <rc><c>B </c><c>   1</c></rc>
    <rc><c>B </c><c>   1</c></rc>
    <rc><c>B </c><c>   1</c></rc>
    <rc><c>B </c><c>   1</c></rc>
    <rc><c>B </c><c>   1</c></rc>
    <rc><c>B </c><c>   1</c></rc>
    <rc><c>B </c><c>   1</c></rc>
    <rc><c>B </c><c>   1</c></rc>
    <rc><c>B </c><c>   1</c></rc>
    <rc><c>B </c><c>   1</c></rc>
    <rc><c>B </c><c>   1</c></rc>
    <rc><c>B </c><c>   1</c></rc>
    <rc><c>B </c><c>   1</c></rc>
    <rc><c>B </c><c>   1</c></rc>
    <rc><c>B </c><c>   1</c></rc>
    <rc><c>B </c><c>   1</c></rc>
    <rc><c>B </c><c>   1</c></rc>
    <rc><c>B </c><c>   1</c></rc>
    <rc><c>B </c><c>   1</c></rc>
    <rc><c>B </c><c>   1</c></rc>
    <rc><c>B </c><c>   1</c></rc>
    <rc><c>B </c><c>   1</c></rc>
    <rc><c>B </c><c>   1</c></rc>
    <rc><c>B </c><c>   1</c></rc>
    <rc><c>B </c><c>   1</c></rc>
    <rc><c>B </c><c>   1</c></rc>
    <rc><c>B </c><c>   1</c></rc>
    <rc><c>B </c><c>   1</c></rc>
    <rc><c>B </c><c>   1</c></rc>
    <rc><c>B </c><c>   1</c></rc>
    <rc><c>B </c><c>   1</c></rc>
    <rc><c>B </c><c>   1</c></rc>
    <rc><c>B </c><c>   1</c></rc>
    <rc><c>B </c><c>   1</c></rc>
    <rc><c>B </c><c>   1</c></rc>
    <rc><c>B </c><c>   1</c></rc>
    <rc><c>B </c><c>   1</c></rc>
    <rc><c>B </c><c>   1</c></rc>
    <rc><c>B </c><c>   1</c></rc>
    <rc><c>N </c><c>   2</c></rc>
    <rc><c>N </c><c>   2</c></rc>
    <rc><c>N </c><c>   2</c></rc>
    <rc><c>N </c><c>   2</c></rc>
    <rc><c>N </c><c>   2</c></rc>
    <rc><c>N </c><c>   2</c></rc>
    <rc><c>N </c><c>   2</c></rc>
    <rc><c>N </c><c>   2</c></rc>
    <rc><c>N </c><c>   2</c></rc>
    <rc><c>N </c><c>   2</c></rc>
    <rc><c>N </c><c>   2</c></rc>
    <rc><c>N </c><c>   2</c></rc>
    <rc><c>N </c><c>   2</c></rc>
    <rc><c>N </c><c>   2</c></rc>
    <rc><c>N </c><c>   2</c></rc>
    <rc><c>N </c><c>   2</c></rc>
    <rc><c>N </c><c>   2</c></rc>
    <rc><c>N </c><c>   2</c></rc>
    <rc><c>N </c><c>   2</c></rc>
    <rc><c>N </c><c>   2</c></rc>
    <rc><c>N </c><c>   2</c></rc>
    <rc><c>N </c><c>   2</c></rc>
    <rc><c>N </c><c>   2</c></rc>
    <rc><c>N </c><c>   2</c></rc>
    <rc><c>N </c><c>   2</c></rc>
    <rc><c>N </c><c>   2</c></rc>
    <rc><c>N </c><c>   2</c></rc>
    <rc><c>N </c><c>   2</c></rc>
    <rc><c>N </c><c>   2</c></rc>
    <rc><c>N </c><c>   2</c></rc>
    <rc><c>N </c><c>   2</c></rc>
    <rc><c>N </c><c>   2</c></rc>
    <rc><c>N </c><c>   2</c></rc>
    <rc><c>N </c><c>   2</c></rc>
    <rc><c>N </c><c>   2</c></rc>
    <rc><c>N </c><c>   2</c></rc>
    <rc><c>N </c><c>   2</c></rc>
    <rc><c>N </c><c>   2</c></rc>
    <rc><c>N </c><c>   2</c></rc>
    <rc><c>N </c><c>   2</c></rc>
    <rc><c>N </c><c>   2</c></rc>
    <rc><c>N </c><c>   2</c></rc>
    <rc><c>N </c><c>   2</c></rc>
    <rc><c>N </c><c>   2</c></rc>
    <rc><c>N </c><c>   2</c></rc>
    <rc><c>N </c><c>   2</c></rc>
    <rc><c>N </c><c>   2</c></rc>
    <rc><c>N </c><c>   2</c></rc>
    <rc><c>C </c><c>   3</c></rc>
   </set>
  </array>
  <array name="atomtypes" >
   <dimension dim="1">type</dimension>
   <field type="int">atomspertype</field>
   <field type="string">element</field>
   <field>mass</field>
   <field>valence</field>
   <field type="string">pseudopotential</field>
   <set>
    <rc><c>  48</c><c>B </c><c>     10.81100000</c><c>      3.00000000</c><c>  PAW_PBE B 06Sep2000                   </c></rc>
    <rc><c>  48</c><c>N </c><c>     14.00100000</c><c>      5.00000000</c><c>  PAW_PBE N 08Apr2002                   </c></rc>
    <rc><c>   1</c><c>C </c><c>     12.01100000</c><c>      4.00000000</c><c>  PAW_PBE C 08Apr2002                   </c></rc>
   </set>
  </array>
 </atominfo>
 <structure name="initialpos" >
  <crystal>
   <varray name="basis" >
    <v>      17.59966831       0.00000000       0.00000000 </v>
    <v>      -8.79983416      15.24175986       0.00000000 </v>
    <v>       0.00000000       0.00000000      19.92151445 </v>
   </varray>
   <i name="volume">   5343.94461817 </i>
   <varray name="rec_basis" >
    <v>       0.05681925       0.03280461       0.00000000 </v>
    <v>       0.00000000       0.06560922       0.00000000 </v>
    <v>       0.00000000       0.00000000       0.05019699 </v>
   </varray>
  </crystal>
  <varray name="positions" >
   <v>       0.99943010       0.00005992       0.50000000 </v>
   <v>       0.14164706       0.99815076       0.50000000 </v>
   <v>       0.28492260       0.99841663       0.50000000 </v>
   <v>       0.42850047       0.99871895       0.50000000 </v>
   <v>       0.57205839       0.00005992       0.50000000 </v>
   <v>       0.71530655       0.00214292       0.50000000 </v>
   <v>       0.85826494       0.00214292       0.50000000 </v>
   <v>       0.00080792       0.14408264       0.50000000 </v>
   <v>       0.14259355       0.14244783       0.50000000 </v>
   <v>       0.28470221       0.14112972       0.50000000 </v>
   <v>       0.42785608       0.14112972       0.50000000 </v>
   <v>       0.57128286       0.14244783       0.50000000 </v>
   <v>       0.71470329       0.14408264       0.50000000 </v>
   <v>       0.85805263       0.14467669       0.50000000 </v>
   <v>       0.00095476       0.28713011       0.50000000 </v>
   <v>       0.14372552       0.28645370       0.50000000 </v>
   <v>       0.28540977       0.28469374       0.50000000 </v>
   <v>       0.42724431       0.28306005       0.50000000 </v>
   <v>       0.57071254       0.28469374       0.50000000 </v>
   <v>       0.71415674       0.28645370       0.50000000 </v>
   <v>       0.85760392       0.28713011       0.50000000 </v>
   <v>       0.00054479       0.42966101       0.50000000 </v>
   <v>       0.14422690       0.42957551       0.50000000 </v>
   <v>       0.28730213       0.42918005       0.50000000 </v>
   <v>       0.42797654       0.42569726       0.50000000 </v>
   <v>       0.56914930       0.42569726       0.50000000 </v>
   <v>       0.71330650       0.42918005       0.50000000 </v>
   <v>       0.85677719       0.42957551       0.50000000 </v>
   <v>       0.99928255       0.57181462       0.50000000 </v>
   <v>       0.14396064       0.57181462       0.50000000 </v>
   <v>       0.28862787       0.57181625       0.50000000 </v>
   <v>       0.43313209       0.57215564       0.50000000 </v>
   <v>       0.71045212       0.57215564       0.50000000 </v>
   <v>       0.85461695       0.57181625       0.50000000 </v>
   <v>       0.99707234       0.71370518       0.50000000 </v>
   <v>       0.14255519       0.71368182       0.50000000 </v>
   <v>       0.28806142       0.71370518       0.50000000 </v>
   <v>       0.43464191       0.71382540       0.50000000 </v>
   <v>       0.58510826       0.71626937       0.50000000 </v>
   <v>       0.70258968       0.71626937       0.50000000 </v>
   <v>       0.85061206       0.71382540       0.50000000 </v>
   <v>       0.99777175       0.85613493       0.50000000 </v>
   <v>       0.14160898       0.85591288       0.50000000 </v>
   <v>       0.28573247       0.85591288       0.50000000 </v>
   <v>       0.42979175       0.85613493       0.50000000 </v>
   <v>       0.57342541       0.85758690       0.50000000 </v>
   <v>       0.71640633       0.86138410       0.50000000 </v>
   <v>       0.85559006       0.85758690       0.50000000 </v>
   <v>       0.04754270       0.09547788       0.50000000 </v>
   <v>       0.18957833       0.09405657       0.50000000 </v>
   <v>       0.33254182       0.09365506       0.50000000 </v>
   <v>       0.47590681       0.09405657       0.50000000 </v>
   <v>       0.61936376       0.09547788       0.50000000 </v>
   <v>       0.76280004       0.09719274       0.50000000 </v>
   <v>       0.90582126       0.09719274       0.50000000 </v>
   <v>       0.04854983       0.23934281       0.50000000 </v>
   <v>       0.19048138       0.23782962       0.50000000 </v>
   <v>       0.33234878       0.23634667       0.50000000 </v>
   <v>       0.47542646       0.23634667       0.50000000 </v>
   <v>       0.61877681       0.23782962       0.50000000 </v>
   <v>       0.76222155       0.23934281       0.50000000 </v>
   <v>       0.90562797       0.23982737       0.50000000 </v>
   <v>       0.04871288       0.38232824       0.50000000 </v>
   <v>       0.19188940       0.38184213       0.50000000 </v>
   <v>       0.33352206       0.38013969       0.50000000 </v>
   <v>       0.47472270       0.37801683       0.50000000 </v>
   <v>       0.61804620       0.38013969       0.50000000 </v>
   <v>       0.76138130       0.38184213       0.50000000 </v>
   <v>       0.90504393       0.38232824       0.50000000 </v>
   <v>       0.04810654       0.52478452       0.50000000 </v>
   <v>       0.19263929       0.52476864       0.50000000 </v>
   <v>       0.33696521       0.52455433       0.50000000 </v>
   <v>       0.47833704       0.52146721       0.50000000 </v>
   <v>       0.61455874       0.52146721       0.50000000 </v>
   <v>       0.75901769       0.52455433       0.50000000 </v>
   <v>       0.90355792       0.52476864       0.50000000 </v>
   <v>       0.04642473       0.66685228       0.50000000 </v>
   <v>       0.19185612       0.66685228       0.50000000 </v>
   <v>       0.33777931       0.66688794       0.50000000 </v>
   <v>       0.48615700       0.66710760       0.50000000 </v>
   <v>       0.75237918       0.66710760       0.50000000 </v>
   <v>       0.90053720       0.66688794       0.50000000 </v>
   <v>       0.04582562       0.80879365       0.50000000 </v>
   <v>       0.19009580       0.80876303       0.50000000 </v>
   <v>       0.33439660       0.80879365       0.50000000 </v>
   <v>       0.47844872       0.80897069       0.50000000 </v>
   <v>       0.62209487       0.81129474       0.50000000 </v>
   <v>       0.76062845       0.81129474       0.50000000 </v>
   <v>       0.90195054       0.80897069       0.50000000 </v>
   <v>       0.04629157       0.95154386       0.50000000 </v>
   <v>       0.18948291       0.95113037       0.50000000 </v>
   <v>       0.33307603       0.95113037       0.50000000 </v>
   <v>       0.47668087       0.95154386       0.50000000 </v>
   <v>       0.62015751       0.95313740       0.50000000 </v>
   <v>       0.76355772       0.95568687       0.50000000 </v>
   <v>       0.90440847       0.95313740       0.50000000 </v>
   <v>       0.56830873       0.56518888       0.50000000 </v>
  </varray>
 </structure>
 <calculation>
  <scstep>
   <time name="dav">    2.36    2.38</time>
   <time name="total">    2.73    2.82</time>
   <energy>
    <i name="alphaZ">    156.50993408 </i>
    <i name="ewald">  58206.76593357 </i>
    <i name="hartreedc"> -70374.18853376 </i>
    <i name="XCdc">   1302.10872284 </i>
    <i name="pawpsdc">  12033.28670802 </i>
    <i name="pawaedc"> -12049.96799276 </i>
    <i name="eentropy">     -0.00000000 </i>
    <i name="bandstr">   -904.51430851 </i>
    <i name="atom">  16260.93880140 </i>
    <i name="e_fr_energy">   4630.93926487 </i>
    <i name="e_wo_entrp">   4630.93926487 </i>
    <i name="e_0_energy">   4630.93926487 </i>
   </energy>
  </scstep>
  <scstep>
   <time name="dav">    2.99    3.03</time>
   <time name="total">    2.99    3.03</time>
   <energy>
    <i name="e_fr_energy">    216.73455270 </i>
    <i name="e_wo_entrp">    216.73455270 </i>
    <i name="e_0_energy">    216.73455270 </i>
   </energy>
  </scstep>
  <scstep>
   <time name="dav">    2.48    2.52</time>
   <time name="total">    2.48    2.52</time>
   <energy>
    <i name="e_fr_energy">   -867.46740828 </i>
    <i name="e_wo_entrp">   -867.46740828 </i>
    <i name="e_0_energy">   -867.46740828 </i>
   </energy>
  </scstep>
  <scstep>
   <time name="dav">    2.47    2.51</time>
   <time name="total">    2.47    2.51</time>
   <energy>
    <i name="e_fr_energy">   -934.19543766 </i>
    <i name="e_wo_entrp">   -934.19543766 </i>
    <i name="e_0_energy">   -934.19543766 </i>
   </energy>
  </scstep>
  <scstep>
   <time name="dav">    2.50    2.53</time>
   <time name="total">    2.94    2.98</time>
   <energy>
    <i name="e_fr_energy">   -935.77519969 </i>
    <i name="e_wo_entrp">   -935.77519969 </i>
    <i name="e_0_energy">   -935.77519969 </i>
   </energy>
  </scstep>
  <scstep>
   <time name="dav">    2.32    2.35</time>
   <time name="total">    3.11    3.17</time>
   <energy>
    <i name="e_fr_energy">   -858.73143560 </i>
    <i name="e_wo_entrp">   -858.73143560 </i>
    <i name="e_0_energy">   -858.73143560 </i>
   </energy>
  </scstep>
  <scstep>
   <time name="dav">    2.36    2.38</time>
   <time name="total">    3.15    3.21</time>
   <energy>
    <i name="e_fr_energy">   -850.19280026 </i>
    <i name="e_wo_entrp">   -850.19280026 </i>
    <i name="e_0_energy">   -850.19280026 </i>
   </energy>
  </scstep>
  <scstep>
   <time name="dav">    2.28    2.30</time>
   <time name="total">    3.08    3.12</time>
   <energy>
    <i name="e_fr_energy">   -845.92616699 </i>
    <i name="e_wo_entrp">   -845.92616591 </i>
    <i name="e_0_energy">   -845.92616645 </i>
   </energy>
  </scstep>
  <scstep>
   <time name="dav">    2.30    2.32</time>
   <time name="total">    3.11    3.15</time>
   <energy>
    <i name="e_fr_energy">   -845.80066879 </i>
    <i name="e_wo_entrp">   -845.80066879 </i>
    <i name="e_0_energy">   -845.80066879 </i>
   </energy>
  </scstep>
  <scstep>
   <time name="dav">    2.38    2.41</time>
   <time name="total">    3.20    3.24</time>
   <energy>
    <i name="e_fr_energy">   -845.63925293 </i>
    <i name="e_wo_entrp">   -845.63925293 </i>
    <i name="e_0_energy">   -845.63925293 </i>
   </energy>
  </scstep>
  <scstep>
   <time name="dav">    2.22    2.24</time>
   <time name="total">    3.04    3.07</time>
   <energy>
    <i name="e_fr_energy">   -845.58674939 </i>
    <i name="e_wo_entrp">   -845.58674939 </i>
    <i name="e_0_energy">   -845.58674939 </i>
   </energy>
  </scstep>
  <scstep>
   <time name="dav">    2.25    2.27</time>
   <time name="total">    3.06    3.11</time>
   <energy>
    <i name="e_fr_energy">   -845.57396380 </i>
    <i name="e_wo_entrp">   -845.57396380 </i>
    <i name="e_0_energy">   -845.57396380 </i>
   </energy>
  </scstep>
  <scstep>
   <time name="dav">    2.23    2.25</time>
   <time name="total">    3.04    3.09</time>
   <energy>
    <i name="e_fr_energy">   -845.58446034 </i>
    <i name="e_wo_entrp">   -845.58446034 </i>
    <i name="e_0_energy">   -845.58446034 </i>
   </energy>
  </scstep>
  <scstep>
   <time name="dav">    2.23    2.25</time>
   <time name="total">    3.03    3.08</time>
   <energy>
    <i name="e_fr_energy">   -845.59410694 </i>
    <i name="e_wo_entrp">   -845.59410694 </i>
    <i name="e_0_energy">   -845.59410694 </i>
   </energy>
  </scstep>
  <scstep>
   <time name="dav">    2.18    2.20</time>
   <time name="total">    2.99    3.03</time>
   <energy>
    <i name="e_fr_energy">   -845.62535415 </i>
    <i name="e_wo_entrp">   -845.62535415 </i>
    <i name="e_0_energy">   -845.62535415 </i>
   </energy>
  </scstep>
  <scstep>
   <time name="dav">    2.21    2.24</time>
   <time name="total">    3.01    3.07</time>
   <energy>
    <i name="e_fr_energy">   -845.64167236 </i>
    <i name="e_wo_entrp">   -845.64167236 </i>
    <i name="e_0_energy">   -845.64167236 </i>
   </energy>
  </scstep>
  <scstep>
   <time name="dav">    2.27    2.30</time>
   <time name="total">    3.08    3.12</time>
   <energy>
    <i name="e_fr_energy">   -845.64801419 </i>
    <i name="e_wo_entrp">   -845.64801419 </i>
    <i name="e_0_energy">   -845.64801419 </i>
   </energy>
  </scstep>
  <scstep>
   <time name="dav">    2.20    2.22</time>
   <time name="total">    3.01    3.06</time>
   <energy>
    <i name="e_fr_energy">   -845.65120328 </i>
    <i name="e_wo_entrp">   -845.65120328 </i>
    <i name="e_0_energy">   -845.65120328 </i>
   </energy>
  </scstep>
  <scstep>
   <time name="dav">    2.36    2.39</time>
   <time name="total">    3.17    3.22</time>
   <energy>
    <i name="e_fr_energy">   -845.65222273 </i>
    <i name="e_wo_entrp">   -845.65222273 </i>
    <i name="e_0_energy">   -845.65222273 </i>
   </energy>
  </scstep>
  <scstep>
   <time name="dav">    2.23    2.25</time>
   <time name="total">    3.04    3.08</time>
   <energy>
    <i name="e_fr_energy">   -845.65265135 </i>
    <i name="e_wo_entrp">   -845.65265135 </i>
    <i name="e_0_energy">   -845.65265135 </i>
   </energy>
  </scstep>
  <scstep>
   <time name="dav">    2.25    2.27</time>
   <time name="total">    3.06    3.10</time>
   <energy>
    <i name="e_fr_energy">   -845.65284804 </i>
    <i name="e_wo_entrp">   -845.65284804 </i>
    <i name="e_0_energy">   -845.65284804 </i>
   </energy>
  </scstep>
  <scstep>
   <time name="dav">    2.15    2.17</time>
   <time name="total">    2.96    3.01</time>
   <energy>
    <i name="e_fr_energy">   -845.65296374 </i>
    <i name="e_wo_entrp">   -845.65296374 </i>
    <i name="e_0_energy">   -845.65296374 </i>
   </energy>
  </scstep>
  <scstep>
   <time name="dav">    2.26    2.28</time>
   <time name="total">    3.07    3.12</time>
   <energy>
    <i name="e_fr_energy">   -845.65303997 </i>
    <i name="e_wo_entrp">   -845.65303997 </i>
    <i name="e_0_energy">   -845.65303997 </i>
   </energy>
  </scstep>
  <scstep>
   <time name="dav">    2.28    2.30</time>
   <time name="total">    3.09    3.13</time>
   <energy>
    <i name="e_fr_energy">   -845.65307879 </i>
    <i name="e_wo_entrp">   -845.65307879 </i>
    <i name="e_0_energy">   -845.65307879 </i>
   </energy>
  </scstep>
  <scstep>
   <time name="dav">    2.23    2.25</time>
   <time name="total">    3.04    3.09</time>
   <energy>
    <i name="e_fr_energy">   -845.65309739 </i>
    <i name="e_wo_entrp">   -845.65309739 </i>
    <i name="e_0_energy">   -845.65309739 </i>
   </energy>
  </scstep>
  <scstep>
   <time name="dav">    2.21    2.23</time>
   <time name="total">    3.02    3.06</time>
   <energy>
    <i name="e_fr_energy">   -845.65311380 </i>
    <i name="e_wo_entrp">   -845.65311380 </i>
    <i name="e_0_energy">   -845.65311380 </i>
   </energy>
  </scstep>
  <scstep>
   <time name="dav">    2.18    2.20</time>
   <time name="total">    3.00    3.04</time>
   <energy>
    <i name="e_fr_energy">   -845.65311699 </i>
    <i name="e_wo_entrp">   -845.65311699 </i>
    <i name="e_0_energy">   -845.65311699 </i>
   </energy>
  </scstep>
  <scstep>
   <time name="dav">    1.97    1.98</time>
   <time name="total">    2.78    2.82</time>
   <energy>
    <i name="e_fr_energy">   -845.65311831 </i>
    <i name="e_wo_entrp">   -845.65311831 </i>
    <i name="e_0_energy">   -845.65311831 </i>
   </energy>
  </scstep>
  <scstep>
   <time name="dav">    1.77    1.79</time>
   <time name="total">    2.59    2.62</time>
   <energy>
    <i name="e_fr_energy">   -845.65311859 </i>
    <i name="e_wo_entrp">   -845.65311859 </i>
    <i name="e_0_energy">   -845.65311859 </i>
   </energy>
  </scstep>
  <scstep>
   <time name="dav">    1.67    1.68</time>
   <time name="total">    2.49    2.52</time>
   <energy>
    <i name="e_fr_energy">   -845.65311870 </i>
    <i name="e_wo_entrp">   -845.65311870 </i>
    <i name="e_0_energy">   -845.65311870 </i>
   </energy>
  </scstep>
  <scstep>
   <time name="dav">    1.67    1.69</time>
   <time name="total">    2.49    2.53</time>
   <energy>
    <i name="e_fr_energy">   -845.65311876 </i>
    <i name="e_wo_entrp">   -845.65311876 </i>
    <i name="e_0_energy">   -845.65311876 </i>
   </energy>
  </scstep>
  <scstep>
   <time name="dav">    1.69    1.71</time>
   <time name="total">    2.51    2.55</time>
   <energy>
    <i name="e_fr_energy">   -845.65311879 </i>
    <i name="e_wo_entrp">   -845.65311879 </i>
    <i name="e_0_energy">   -845.65311879 </i>
   </energy>
  </scstep>
  <scstep>
   <time name="dav">    1.80    1.82</time>
   <time name="total">    2.17    2.20</time>
   <energy>
    <i name="alphaZ">    156.50993408 </i>
    <i name="ewald">  58206.76593357 </i>
    <i name="hartreedc"> -72314.27277745 </i>
    <i name="XCdc">   1369.72393407 </i>
    <i name="pawpsdc">  44018.76957098 </i>
    <i name="pawaedc"> -44054.11144510 </i>
    <i name="eentropy">     -0.00000000 </i>
    <i name="bandstr">  -4489.97707033 </i>
    <i name="atom">  16260.93880140 </i>
    <i name="e_fr_energy">   -845.65311879 </i>
    <i name="e_wo_entrp">   -845.65311879 </i>
    <i name="e_0_energy">   -845.65311879 </i>
   </energy>
  </scstep>
  <structure>
   <crystal>
    <varray name="basis" >
     <v>      17.59966831       0.00000000       0.00000000 </v>
     <v>      -8.79983416      15.24175986       0.00000000 </v>
     <v>       0.00000000       0.00000000      19.92151445 </v>
    </varray>
    <i name="volume">   5343.94461817 </i>
    <varray name="rec_basis" >
     <v>       0.05681925       0.03280461       0.00000000 </v>
     <v>       0.00000000       0.06560922       0.00000000 </v>
     <v>       0.00000000       0.00000000       0.05019699 </v>
    </varray>
   </crystal>
   <varray name="positions" >
    <v>       0.99943010       0.00005992       0.50000000 </v>
    <v>       0.14164706       0.99815076       0.50000000 </v>
    <v>       0.28492260       0.99841663       0.50000000 </v>
    <v>       0.42850047       0.99871895       0.50000000 </v>
    <v>       0.57205839       0.00005992       0.50000000 </v>
    <v>       0.71530655       0.00214292       0.50000000 </v>
    <v>       0.85826494       0.00214292       0.50000000 </v>
    <v>       0.00080792       0.14408264       0.50000000 </v>
    <v>       0.14259355       0.14244783       0.50000000 </v>
    <v>       0.28470221       0.14112972       0.50000000 </v>
    <v>       0.42785608       0.14112972       0.50000000 </v>
    <v>       0.57128286       0.14244783       0.50000000 </v>
    <v>       0.71470329       0.14408264       0.50000000 </v>
    <v>       0.85805263       0.14467669       0.50000000 </v>
    <v>       0.00095476       0.28713011       0.50000000 </v>
    <v>       0.14372552       0.28645370       0.50000000 </v>
    <v>       0.28540977       0.28469374       0.50000000 </v>
    <v>       0.42724431       0.28306005       0.50000000 </v>
    <v>       0.57071254       0.28469374       0.50000000 </v>
    <v>       0.71415674       0.28645370       0.50000000 </v>
    <v>       0.85760392       0.28713011       0.50000000 </v>
    <v>       0.00054479       0.42966101       0.50000000 </v>
    <v>       0.14422690       0.42957551       0.50000000 </v>
    <v>       0.28730213       0.42918005       0.50000000 </v>
    <v>       0.42797654       0.42569726       0.50000000 </v>
    <v>       0.56914930       0.42569726       0.50000000 </v>
    <v>       0.71330650       0.42918005       0.50000000 </v>
    <v>       0.85677719       0.42957551       0.50000000 </v>
    <v>       0.99928255       0.57181462       0.50000000 </v>
    <v>       0.14396064       0.57181462       0.50000000 </v>
    <v>       0.28862787       0.57181625       0.50000000 </v>
    <v>       0.43313209       0.57215564       0.50000000 </v>
    <v>       0.71045212       0.57215564       0.50000000 </v>
    <v>       0.85461695       0.57181625       0.50000000 </v>
    <v>       0.99707234       0.71370518       0.50000000 </v>
    <v>       0.14255519       0.71368182       0.50000000 </v>
    <v>       0.28806142       0.71370518       0.50000000 </v>
    <v>       0.43464191       0.71382540       0.50000000 </v>
    <v>       0.58510826       0.71626937       0.50000000 </v>
    <v>       0.70258968       0.71626937       0.50000000 </v>
    <v>       0.85061206       0.71382540       0.50000000 </v>
    <v>       0.99777175       0.85613493       0.50000000 </v>
    <v>       0.14160898       0.85591288       0.50000000 </v>
    <v>       0.28573247       0.85591288       0.50000000 </v>
    <v>       0.42979175       0.85613493       0.50000000 </v>
    <v>       0.57342541       0.85758690       0.50000000 </v>
    <v>       0.71640633       0.86138410       0.50000000 </v>
    <v>       0.85559006       0.85758690       0.50000000 </v>
    <v>       0.04754270       0.09547788       0.50000000 </v>
    <v>       0.18957833       0.09405657       0.50000000 </v>
    <v>       0.33254182       0.09365506       0.50000000 </v>
    <v>       0.47590681       0.09405657       0.50000000 </v>
    <v>       0.61936376       0.09547788       0.50000000 </v>
    <v>       0.76280004       0.09719274       0.50000000 </v>
    <v>       0.90582126       0.09719274       0.50000000 </v>
    <v>       0.04854983       0.23934281       0.50000000 </v>
    <v>       0.19048138       0.23782962       0.50000000 </v>
    <v>       0.33234878       0.23634667       0.50000000 </v>
    <v>       0.47542646       0.23634667       0.50000000 </v>
    <v>       0.61877681       0.23782962       0.50000000 </v>
    <v>       0.76222155       0.23934281       0.50000000 </v>
    <v>       0.90562797       0.23982737       0.50000000 </v>
    <v>       0.04871288       0.38232824       0.50000000 </v>
    <v>       0.19188940       0.38184213       0.50000000 </v>
    <v>       0.33352206       0.38013969       0.50000000 </v>
    <v>       0.47472270       0.37801683       0.50000000 </v>
    <v>       0.61804620       0.38013969       0.50000000 </v>
    <v>       0.76138130       0.38184213       0.50000000 </v>
    <v>       0.90504393       0.38232824       0.50000000 </v>
    <v>       0.04810654       0.52478452       0.50000000 </v>
    <v>       0.19263929       0.52476864       0.50000000 </v>
    <v>       0.33696521       0.52455433       0.50000000 </v>
    <v>       0.47833704       0.52146721       0.50000000 </v>
    <v>       0.61455874       0.52146721       0.50000000 </v>
    <v>       0.75901769       0.52455433       0.50000000 </v>
    <v>       0.90355792       0.52476864       0.50000000 </v>
    <v>       0.04642473       0.66685228       0.50000000 </v>
    <v>       0.19185612       0.66685228       0.50000000 </v>
    <v>       0.33777931       0.66688794       0.50000000 </v>
    <v>       0.48615700       0.66710760       0.50000000 </v>
    <v>       0.75237918       0.66710760       0.50000000 </v>
    <v>       0.90053720       0.66688794       0.50000000 </v>
    <v>       0.04582562       0.80879365       0.50000000 </v>
    <v>       0.19009580       0.80876303       0.50000000 </v>
    <v>       0.33439660       0.80879365       0.50000000 </v>
    <v>       0.47844872       0.80897069       0.50000000 </v>
    <v>       0.62209487       0.81129474       0.50000000 </v>
    <v>       0.76062845       0.81129474       0.50000000 </v>
    <v>       0.90195054       0.80897069       0.50000000 </v>
    <v>       0.04629157       0.95154386       0.50000000 </v>
    <v>       0.18948291       0.95113037       0.50000000 </v>
    <v>       0.33307603       0.95113037       0.50000000 </v>
    <v>       0.47668087       0.95154386       0.50000000 </v>
    <v>       0.62015751       0.95313740       0.50000000 </v>
    <v>       0.76355772       0.95568687       0.50000000 </v>
    <v>       0.90440847       0.95313740       0.50000000 </v>
    <v>       0.56830873       0.56518888       0.50000000 </v>
   </varray>
  </structure>
  <varray name="forces" >
   <v>      -0.02552206      -0.00501998       0.00000000 </v>
   <v>      -0.27375362       0.41349450       0.00000000 </v>
   <v>       0.02987663       0.01808405       0.00000000 </v>
   <v>       0.02703414      -0.00396279       0.00000000 </v>
   <v>       0.04159307      -0.02515873       0.00000000 </v>
   <v>      -0.03254453      -0.04889771       0.00000000 </v>
   <v>       0.03434811      -0.04668395       0.00000000 </v>
   <v>      -0.00004611      -0.02974079       0.00000000 </v>
   <v>       0.00223532      -0.05821931       0.00000000 </v>
   <v>      -0.04971323      -0.04365071       0.00000000 </v>
   <v>       0.00713453      -0.03247202       0.00000000 </v>
   <v>       0.02835370      -0.02419338       0.00000000 </v>
   <v>       0.00721572      -0.02666873       0.00000000 </v>
   <v>       0.00191815      -0.04191382       0.00000000 </v>
   <v>      -0.00558834      -0.03128967       0.00000000 </v>
   <v>       0.01035479      -0.04809839       0.00000000 </v>
   <v>      -0.03115499      -0.00904202       0.00000000 </v>
   <v>      -0.00762223      -0.09544373       0.00000000 </v>
   <v>       0.02878365      -0.00315051      -0.00000000 </v>
   <v>      -0.00508795      -0.04476038       0.00000000 </v>
   <v>       0.00983982      -0.03035691       0.00000000 </v>
   <v>       0.00121920       0.00504649       0.00000000 </v>
   <v>      -0.02348695      -0.00347315       0.00000000 </v>
   <v>       0.05856170      -0.14139829       0.00000000 </v>
   <v>      -0.11369742      -0.20234751       0.00000000 </v>
   <v>       0.10987821      -0.20091947       0.00000000 </v>
   <v>      -0.05830405      -0.13941626       0.00000000 </v>
   <v>       0.02558040      -0.00265342       0.00000000 </v>
   <v>       0.01705483       0.02534032      -0.00000000 </v>
   <v>      -0.01583002       0.02598124       0.00000000 </v>
   <v>      -0.08446491       0.12599434      -0.00000000 </v>
   <v>       0.05056035       0.39506315       0.00000000 </v>
   <v>      -0.05184992       0.39597961      -0.00000000 </v>
   <v>       0.08500572       0.12636020       0.00000000 </v>
   <v>      -0.00909447       0.01596146       0.00000000 </v>
   <v>       0.00053783       0.02136951       0.00000000 </v>
   <v>       0.01032422       0.01983927       0.00000000 </v>
   <v>       0.08779193       0.04209284       0.00000000 </v>
   <v>       1.36441094       1.25032405       0.00000000 </v>
   <v>      -1.36474688       1.25082679       0.00000000 </v>
   <v>      -0.08934675       0.04412842       0.00000000 </v>
   <v>      -0.07205412      -0.00816194       0.00000000 </v>
   <v>       0.00093906      -0.04720786       0.00000000 </v>
   <v>       0.01863478      -0.00693382       0.00000000 </v>
   <v>       0.04964509      -0.00742291       0.00000000 </v>
   <v>       0.15215016       0.03656585       0.00000000 </v>
   <v>       0.00015011      -0.25183007       0.00000000 </v>
   <v>      -0.15136066       0.03733286       0.00000000 </v>
   <v>       0.01327425       0.02750352       0.00000000 </v>
   <v>       0.05138924      -0.15589775       0.00000000 </v>
   <v>       0.01086881       0.00836601      -0.00000000 </v>
   <v>      -0.01092600       0.01946325      -0.00000000 </v>
   <v>      -0.02762393       0.03112726      -0.00000000 </v>
   <v>      -0.01407990       0.02659647       0.00000000 </v>
   <v>       0.00900874       0.02575441      -0.00000000 </v>
   <v>       0.01239695       0.03760444      -0.00000000 </v>
   <v>      -0.01093812       0.01305501       0.00000000 </v>
   <v>       0.02395045       0.04653148       0.00000000 </v>
   <v>      -0.01219643       0.03411730       0.00000000 </v>
   <v>       0.00916590       0.00247293       0.00000000 </v>
   <v>      -0.01699080       0.03549023       0.00000000 </v>
   <v>      -0.00194152       0.03173884       0.00000000 </v>
   <v>       0.00945369       0.02830493       0.00000000 </v>
   <v>       0.04616146       0.06298767       0.00000000 </v>
   <v>      -0.02149345      -0.19501292       0.00000000 </v>
   <v>       0.00243525       0.11262858       0.00000000 </v>
   <v>       0.02327214      -0.19942372      -0.00000000 </v>
   <v>      -0.04752442       0.06012397      -0.00000000 </v>
   <v>      -0.01179464       0.02751710      -0.00000000 </v>
   <v>      -0.00085798       0.01152662       0.00000000 </v>
   <v>       0.02434006      -0.00456113       0.00000000 </v>
   <v>       0.18944614       0.11523351       0.00000000 </v>
   <v>       1.02346134      -1.56186458      -0.00000000 </v>
   <v>      -1.02176628      -1.56298605       0.00000000 </v>
   <v>      -0.18905576       0.11361117       0.00000000 </v>
   <v>      -0.02520379      -0.00519636       0.00000000 </v>
   <v>       0.01003681      -0.02870640      -0.00000000 </v>
   <v>      -0.01178907      -0.02977535      -0.00000000 </v>
   <v>      -0.06068757      -0.06443488       0.00000000 </v>
   <v>      -0.27109699       0.01047350       0.00000000 </v>
   <v>       0.27153820       0.00931414       0.00000000 </v>
   <v>       0.06188774      -0.06425025       0.00000000 </v>
   <v>       0.04749854      -0.00432535       0.00000000 </v>
   <v>      -0.00726687      -0.00428064       0.00000000 </v>
   <v>      -0.04058406      -0.01079094       0.00000000 </v>
   <v>      -0.08724252      -0.01273548      -0.00000000 </v>
   <v>      -0.88698501       0.24404020      -0.00000000 </v>
   <v>       0.88636257       0.24338512       0.00000000 </v>
   <v>       0.08697805      -0.01893746       0.00000000 </v>
   <v>       0.07311332      -0.05296030      -0.00000000 </v>
   <v>       0.15371454      -0.13218470       0.00000000 </v>
   <v>      -0.02317616      -0.00536574      -0.00000000 </v>
   <v>      -0.03496206       0.01606336      -0.00000000 </v>
   <v>      -0.11211268       0.11862061      -0.00000000 </v>
   <v>      -0.00071139       0.01517495      -0.00000000 </v>
   <v>       0.11423296       0.11453190      -0.00000000 </v>
   <v>      -0.00084273      -0.11896522       0.00000000 </v>
  </varray>
  <varray name="stress" >
   <v>     -10.57363934      -0.01828496       0.00000000 </v>
   <v>      -0.01828496       3.00629250       0.00000000 </v>
   <v>       0.00000000       0.00000000      -0.42556479 </v>
  </varray>
  <energy>
   <i name="e_fr_energy">   -845.65311879 </i>
   <i name="e_wo_entrp">   -845.65311879 </i>
   <i name="e_0_energy">     -0.00000000 </i>
  </energy>
  <time name="totalsc">  103.58  105.10</time>
  <eigenvalues>
   <array>
    <dimension dim="1">band</dimension>
    <dimension dim="2">kpoint</dimension>
    <dimension dim="3">spin</dimension>
    <field>eigene</field>
    <field>occ</field>
    <set>
     <set comment="spin 1">
      <set comment="kpoint 1">
       <r>  -22.5396    1.0000 </r>
       <r>  -22.0201    1.0000 </r>
       <r>  -21.7707    1.0000 </r>
       <r>  -21.7442    1.0000 </r>
       <r>  -21.6995    1.0000 </r>
       <r>  -21.6544    1.0000 </r>
       <r>  -21.6168    1.0000 </r>
       <r>  -21.2389    1.0000 </r>
       <r>  -21.0705    1.0000 </r>
       <r>  -21.0037    1.0000 </r>
       <r>  -20.9680    1.0000 </r>
       <r>  -20.9230    1.0000 </r>
       <r>  -20.8761    1.0000 </r>
       <r>  -20.7458    1.0000 </r>
       <r>  -20.7026    1.0000 </r>
       <r>  -20.6645    1.0000 </r>
       <r>  -20.5953    1.0000 </r>
       <r>  -20.5694    1.0000 </r>
       <r>  -20.4277    1.0000 </r>
       <r>  -19.9796    1.0000 </r>
       <r>  -19.9248    1.0000 </r>
       <r>  -19.8037    1.0000 </r>
       <r>  -19.7641    1.0000 </r>
       <r>  -19.7390    1.0000 </r>
       <r>  -19.7369    1.0000 </r>
       <r>  -19.7062    1.0000 </r>
       <r>  -19.6952    1.0000 </r>
       <r>  -19.6439    1.0000 </r>
       <r>  -19.6378    1.0000 </r>
       <r>  -19.6285    1.0000 </r>
       <r>  -19.4930    1.0000 </r>
       <r>  -19.4113    1.0000 </r>
       <r>  -19.3650    1.0000 </r>
       <r>  -19.3536    1.0000 </r>
       <r>  -19.2897    1.0000 </r>
       <r>  -19.2395    1.0000 </r>
       <r>  -19.1069    1.0000 </r>
       <r>  -19.0021    1.0000 </r>
       <r>  -18.9306    1.0000 </r>
       <r>  -18.8736    1.0000 </r>
       <r>  -18.8544    1.0000 </r>
       <r>  -18.8360    1.0000 </r>
       <r>  -18.7656    1.0000 </r>
       <r>  -18.7495    1.0000 </r>
       <r>  -18.7254    1.0000 </r>
       <r>  -18.7181    1.0000 </r>
       <r>  -18.6955    1.0000 </r>
       <r>  -18.4447    1.0000 </r>
       <r>  -14.1395    1.0000 </r>
       <r>  -13.1833    1.0000 </r>
       <r>  -13.1550    1.0000 </r>
       <r>  -13.1080    1.0000 </r>
       <r>  -13.1016    1.0000 </r>
       <r>  -13.0784    1.0000 </r>
       <r>  -13.0217    1.0000 </r>
       <r>  -12.9592    1.0000 </r>
       <r>  -12.9497    1.0000 </r>
       <r>  -12.9348    1.0000 </r>
       <r>  -12.8055    1.0000 </r>
       <r>  -12.7686    1.0000 </r>
       <r>  -12.6016    1.0000 </r>
       <r>  -12.5016    1.0000 </r>
       <r>  -12.4849    1.0000 </r>
       <r>  -12.3795    1.0000 </r>
       <r>  -12.3093    1.0000 </r>
       <r>  -12.2966    1.0000 </r>
       <r>  -12.1792    1.0000 </r>
       <r>  -11.9035    1.0000 </r>
       <r>  -11.8844    1.0000 </r>
       <r>  -11.7677    1.0000 </r>
       <r>  -11.7653    1.0000 </r>
       <r>  -11.7509    1.0000 </r>
       <r>  -11.7400    1.0000 </r>
       <r>  -11.6941    1.0000 </r>
       <r>  -11.6548    1.0000 </r>
       <r>  -11.6324    1.0000 </r>
       <r>  -11.5389    1.0000 </r>
       <r>  -11.4237    1.0000 </r>
       <r>  -11.2003    1.0000 </r>
       <r>  -11.1223    1.0000 </r>
       <r>  -11.0859    1.0000 </r>
       <r>  -11.0600    1.0000 </r>
       <r>  -10.9630    1.0000 </r>
       <r>  -10.9123    1.0000 </r>
       <r>  -10.6824    1.0000 </r>
       <r>  -10.4614    1.0000 </r>
       <r>  -10.4331    1.0000 </r>
       <r>  -10.3496    1.0000 </r>
       <r>  -10.2546    1.0000 </r>
       <r>  -10.2067    1.0000 </r>
       <r>   -9.8888    1.0000 </r>
       <r>   -9.7691    1.0000 </r>
       <r>   -9.7652    1.0000 </r>
       <r>   -9.7235    1.0000 </r>
       <r>   -9.6766    1.0000 </r>
       <r>   -9.5895    1.0000 </r>
       <r>   -9.5444    1.0000 </r>
       <r>   -9.4980    1.0000 </r>
       <r>   -9.4644    1.0000 </r>
       <r>   -9.3523    1.0000 </r>
       <r>   -9.3448    1.0000 </r>
       <r>   -9.2871    1.0000 </r>
       <r>   -9.2590    1.0000 </r>
       <r>   -9.2550    1.0000 </r>
       <r>   -9.2533    1.0000 </r>
       <r>   -9.2398    1.0000 </r>
       <r>   -9.2247    1.0000 </r>
       <r>   -9.2208    1.0000 </r>
       <r>   -9.2074    1.0000 </r>
       <r>   -9.2026    1.0000 </r>
       <r>   -9.2006    1.0000 </r>
       <r>   -9.1981    1.0000 </r>
       <r>   -9.1570    1.0000 </r>
       <r>   -9.1361    1.0000 </r>
       <r>   -9.1117    1.0000 </r>
       <r>   -9.1093    1.0000 </r>
       <r>   -9.0958    1.0000 </r>
       <r>   -9.0482    1.0000 </r>
       <r>   -8.9924    1.0000 </r>
       <r>   -8.8447    1.0000 </r>
       <r>   -8.7909    1.0000 </r>
       <r>   -8.6516    1.0000 </r>
       <r>   -8.5074    1.0000 </r>
       <r>   -8.4823    1.0000 </r>
       <r>   -8.4423    1.0000 </r>
       <r>   -8.3294    1.0000 </r>
       <r>   -8.2240    1.0000 </r>
       <r>   -8.2017    1.0000 </r>
       <r>   -8.1974    1.0000 </r>
       <r>   -8.1701    1.0000 </r>
       <r>   -8.1494    1.0000 </r>
       <r>   -8.1196    1.0000 </r>
       <r>   -8.0396    1.0000 </r>
       <r>   -7.9698    1.0000 </r>
       <r>   -7.9495    1.0000 </r>
       <r>   -7.8795    1.0000 </r>
       <r>   -7.8493    1.0000 </r>
       <r>   -7.8428    1.0000 </r>
       <r>   -7.8010    1.0000 </r>
       <r>   -7.7971    1.0000 </r>
       <r>   -7.7960    1.0000 </r>
       <r>   -7.7375    1.0000 </r>
       <r>   -7.7349    1.0000 </r>
       <r>   -7.7125    1.0000 </r>
       <r>   -7.6788    1.0000 </r>
       <r>   -7.6735    1.0000 </r>
       <r>   -7.6647    1.0000 </r>
       <r>   -7.6382    1.0000 </r>
       <r>   -7.6329    1.0000 </r>
       <r>   -7.4416    1.0000 </r>
       <r>   -7.4351    1.0000 </r>
       <r>   -7.4265    1.0000 </r>
       <r>   -7.3855    1.0000 </r>
       <r>   -7.3624    1.0000 </r>
       <r>   -7.2748    1.0000 </r>
       <r>   -6.8316    1.0000 </r>
       <r>   -6.7584    1.0000 </r>
       <r>   -6.6239    1.0000 </r>
       <r>   -6.6067    1.0000 </r>
       <r>   -6.5413    1.0000 </r>
       <r>   -6.5353    1.0000 </r>
       <r>   -6.5006    1.0000 </r>
       <r>   -6.4881    1.0000 </r>
       <r>   -6.4580    1.0000 </r>
       <r>   -6.4560    1.0000 </r>
       <r>   -6.4423    1.0000 </r>
       <r>   -6.4402    1.0000 </r>
       <r>   -6.4095    1.0000 </r>
       <r>   -6.4030    1.0000 </r>
       <r>   -6.3572    1.0000 </r>
       <r>   -6.3449    1.0000 </r>
       <r>   -6.3192    1.0000 </r>
       <r>   -6.1108    1.0000 </r>
       <r>   -5.9724    1.0000 </r>
       <r>   -5.9243    1.0000 </r>
       <r>   -5.8858    1.0000 </r>
       <r>   -5.8821    1.0000 </r>
       <r>   -5.8608    1.0000 </r>
       <r>   -5.7809    1.0000 </r>
       <r>   -5.7799    1.0000 </r>
       <r>   -5.5266    1.0000 </r>
       <r>   -5.2224    1.0000 </r>
       <r>   -5.1973    1.0000 </r>
       <r>   -5.1961    1.0000 </r>
       <r>   -5.1423    1.0000 </r>
       <r>   -5.1311    1.0000 </r>
       <r>   -5.1037    1.0000 </r>
       <r>   -4.9991    1.0000 </r>
       <r>   -4.9437    1.0000 </r>
       <r>   -4.9176    1.0000 </r>
       <r>   -4.9057    1.0000 </r>
       <r>   -4.9022    1.0000 </r>
       <r>   -4.7319    1.0000 </r>
       <r>   -1.3151    1.0000 </r>
       <r>   -1.2021    0.0000 </r>
       <r>    0.0599    0.0000 </r>
       <r>    0.2050    0.0000 </r>
       <r>    0.2389    0.0000 </r>
       <r>    0.2599    0.0000 </r>
       <r>    0.2643    0.0000 </r>
       <r>    0.2989    0.0000 </r>
       <r>    0.3054    0.0000 </r>
       <r>    0.3768    0.0000 </r>
       <r>    0.3912    0.0000 </r>
       <r>    0.4362    0.0000 </r>
       <r>    0.4789    0.0000 </r>
       <r>    0.5273    0.0000 </r>
       <r>    0.6106    0.0000 </r>
       <r>    0.7452    0.0000 </r>
       <r>    0.7486    0.0000 </r>
       <r>    0.7801    0.0000 </r>
       <r>    0.8071    0.0000 </r>
       <r>    0.8127    0.0000 </r>
       <r>    0.8292    0.0000 </r>
       <r>    0.8362    0.0000 </r>
       <r>    0.8583    0.0000 </r>
       <r>    0.8716    0.0000 </r>
       <r>    0.9809    0.0000 </r>
       <r>    1.0199    0.0000 </r>
       <r>    1.0591    0.0000 </r>
       <r>    1.1184    0.0000 </r>
       <r>    1.4953    0.0000 </r>
       <r>    1.6735    0.0000 </r>
       <r>    1.6980    0.0000 </r>
       <r>    1.7061    0.0000 </r>
       <r>    1.7234    0.0000 </r>
       <r>    1.7395    0.0000 </r>
       <r>    1.7444    0.0000 </r>
       <r>    1.8043    0.0000 </r>
       <r>    1.8072    0.0000 </r>
       <r>    1.8443    0.0000 </r>
       <r>    1.8475    0.0000 </r>
       <r>    1.8798    0.0000 </r>
       <r>    1.8814    0.0000 </r>
       <r>    1.9071    0.0000 </r>
       <r>    1.9089    0.0000 </r>
       <r>    1.9301    0.0000 </r>
       <r>    1.9810    0.0000 </r>
       <r>    2.0299    0.0000 </r>
       <r>    2.1011    0.0000 </r>
       <r>    2.1080    0.0000 </r>
       <r>    2.1219    0.0000 </r>
       <r>    2.1301    0.0000 </r>
       <r>    2.1355    0.0000 </r>
      </set>
     </set>
    </set>
   </array>
  </eigenvalues>
  <separator name="orbital magnetization" >
   <v name="MAGDIPOLOUT">      0.00000000      0.00000000      0.00000000</v>
  </separator>
  <dos>
   <i name="efermi">     -1.25625337 </i>
   <total>
    <array>
     <dimension dim="1">gridpoints</dimension>
     <dimension dim="2">spin</dimension>
     <field>energy</field>
     <field>total</field>
     <field>integrated</field>
     <set>
      <set comment="spin 1">
       <r>   -23.7733     0.0000     0.0000 </r>
       <r>   -23.6829     0.0000     0.0000 </r>
       <r>   -23.5924     0.0000     0.0000 </r>
       <r>   -23.5019     0.0000     0.0000 </r>
       <r>   -23.4114     0.0000     0.0000 </r>
       <r>   -23.3210     0.0000     0.0000 </r>
       <r>   -23.2305     0.0000     0.0000 </r>
       <r>   -23.1400     0.0000     0.0000 </r>
       <r>   -23.0495     0.0000     0.0000 </r>
       <r>   -22.9591     0.0000     0.0000 </r>
       <r>   -22.8686     0.0000     0.0000 </r>
       <r>   -22.7781     0.0000     0.0000 </r>
       <r>   -22.6876     0.0000     0.0000 </r>
       <r>   -22.5972     0.0000     0.0000 </r>
       <r>   -22.5067    22.1054     2.0000 </r>
       <r>   -22.4162     0.0000     2.0000 </r>
       <r>   -22.3257     0.0000     2.0000 </r>
       <r>   -22.2353     0.0000     2.0000 </r>
       <r>   -22.1448     0.0000     2.0000 </r>
       <r>   -22.0543     0.0000     2.0000 </r>
       <r>   -21.9638    22.1054     4.0000 </r>
       <r>   -21.8734     0.0000     4.0000 </r>
       <r>   -21.7829     0.9373     4.0848 </r>
       <r>   -21.6924    61.8719     9.6827 </r>
       <r>   -21.6019    43.8248    13.9651 </r>
       <r>   -21.5115     0.0000    14.0000 </r>
       <r>   -21.4210     0.0000    14.0000 </r>
       <r>   -21.3305     0.0000    14.0000 </r>
       <r>   -21.2400     9.6113    14.8696 </r>
       <r>   -21.1496     0.0000    16.0000 </r>
       <r>   -21.0591    20.9319    17.8938 </r>
       <r>   -20.9686    32.4154    20.9328 </r>
       <r>   -20.8781    30.6539    24.7734 </r>
       <r>   -20.7876     0.0000    26.0000 </r>
       <r>   -20.6972    39.2873    29.5545 </r>
       <r>   -20.6067    23.2965    32.1078 </r>
       <r>   -20.5162    43.0197    36.0000 </r>
       <r>   -20.4257    13.4039    37.2127 </r>
       <r>   -20.3353     0.0000    38.0000 </r>
       <r>   -20.2448     0.0000    38.0000 </r>
       <r>   -20.1543     0.0000    38.0000 </r>
       <r>   -20.0638     0.0000    38.0000 </r>
       <r>   -19.9734    17.9473    39.6238 </r>
       <r>   -19.8829    22.1054    42.0000 </r>
       <r>   -19.7924    20.8755    43.8887 </r>
       <r>   -19.7019    86.1508    51.7946 </r>
       <r>   -19.6115    66.1361    59.9837 </r>
       <r>   -19.5210     0.0009    60.0001 </r>
       <r>   -19.4305    22.1767    62.0065 </r>
       <r>   -19.3400    65.6271    67.9442 </r>
       <r>   -19.2496    23.8348    70.1565 </r>
       <r>   -19.1591     0.0000    72.0000 </r>
       <r>   -19.0686    22.1054    74.0000 </r>
       <r>   -18.9781    22.0976    75.9993 </r>
       <r>   -18.8877    22.6153    78.0461 </r>
       <r>   -18.7972    65.8065    84.0000 </r>
       <r>   -18.7067    88.4219    92.0000 </r>
       <r>   -18.6162    20.8412    94.0000 </r>
       <r>   -18.5258     0.0000    94.0000 </r>
       <r>   -18.4353    20.0998    95.8185 </r>
       <r>   -18.3448     0.0000    96.0000 </r>
       <r>   -18.2543     0.0000    96.0000 </r>
       <r>   -18.1639     0.0000    96.0000 </r>
       <r>   -18.0734     0.0000    96.0000 </r>
       <r>   -17.9829     0.0000    96.0000 </r>
       <r>   -17.8924     0.0000    96.0000 </r>
       <r>   -17.8020     0.0000    96.0000 </r>
       <r>   -17.7115     0.0000    96.0000 </r>
       <r>   -17.6210     0.0000    96.0000 </r>
       <r>   -17.5305     0.0000    96.0000 </r>
       <r>   -17.4401     0.0000    96.0000 </r>
       <r>   -17.3496     0.0000    96.0000 </r>
       <r>   -17.2591     0.0000    96.0000 </r>
       <r>   -17.1686     0.0000    96.0000 </r>
       <r>   -17.0782     0.0000    96.0000 </r>
       <r>   -16.9877     0.0000    96.0000 </r>
       <r>   -16.8972     0.0000    96.0000 </r>
       <r>   -16.8067     0.0000    96.0000 </r>
       <r>   -16.7163     0.0000    96.0000 </r>
       <r>   -16.6258     0.0000    96.0000 </r>
       <r>   -16.5353     0.0000    96.0000 </r>
       <r>   -16.4448     0.0000    96.0000 </r>
       <r>   -16.3544     0.0000    96.0000 </r>
       <r>   -16.2639     0.0000    96.0000 </r>
       <r>   -16.1734     0.0000    96.0000 </r>
       <r>   -16.0829     0.0000    96.0000 </r>
       <r>   -15.9924     0.0000    96.0000 </r>
       <r>   -15.9020     0.0000    96.0000 </r>
       <r>   -15.8115     0.0000    96.0000 </r>
       <r>   -15.7210     0.0000    96.0000 </r>
       <r>   -15.6305     0.0000    96.0000 </r>
       <r>   -15.5401     0.0000    96.0000 </r>
       <r>   -15.4496     0.0000    96.0000 </r>
       <r>   -15.3591     0.0000    96.0000 </r>
       <r>   -15.2686     0.0000    96.0000 </r>
       <r>   -15.1782     0.0000    96.0000 </r>
       <r>   -15.0877     0.0000    96.0000 </r>
       <r>   -14.9972     0.0000    96.0000 </r>
       <r>   -14.9067     0.0000    96.0000 </r>
       <r>   -14.8163     0.0000    96.0000 </r>
       <r>   -14.7258     0.0000    96.0000 </r>
       <r>   -14.6353     0.0000    96.0000 </r>
       <r>   -14.5448     0.0000    96.0000 </r>
       <r>   -14.4544     0.0000    96.0000 </r>
       <r>   -14.3639     0.0000    96.0000 </r>
       <r>   -14.2734     0.0000    96.0000 </r>
       <r>   -14.1829     0.0000    96.0000 </r>
       <r>   -14.0925    22.1054    98.0000 </r>
       <r>   -14.0020     0.0000    98.0000 </r>
       <r>   -13.9115     0.0000    98.0000 </r>
       <r>   -13.8210     0.0000    98.0000 </r>
       <r>   -13.7306     0.0000    98.0000 </r>
       <r>   -13.6401     0.0000    98.0000 </r>
       <r>   -13.5496     0.0000    98.0000 </r>
       <r>   -13.4591     0.0000    98.0000 </r>
       <r>   -13.3687     0.0000    98.0000 </r>
       <r>   -13.2782     0.0000    98.0000 </r>
       <r>   -13.1877     5.8582    98.5300 </r>
       <r>   -13.0972    59.0419   105.3419 </r>
       <r>   -13.0068    43.7452   109.9656 </r>
       <r>   -12.9163    66.2201   115.9913 </r>
       <r>   -12.8258     0.0458   116.0041 </r>
       <r>   -12.7353    44.1651   120.0000 </r>
       <r>   -12.6449     0.0000   120.0000 </r>
       <r>   -12.5544    22.1054   122.0000 </r>
       <r>   -12.4639    44.1780   125.9970 </r>
       <r>   -12.3734    17.7737   127.6081 </r>
       <r>   -12.2830    43.6228   131.9468 </r>
       <r>   -12.1925     0.6654   132.0602 </r>
       <r>   -12.1020    21.4401   134.0000 </r>
       <r>   -12.0115     0.0000   134.0000 </r>
       <r>   -11.9211     0.1454   134.0132 </r>
       <r>   -11.8306    44.0654   138.0000 </r>
       <r>   -11.7401    75.7832   144.8565 </r>
       <r>   -11.6496    39.2611   149.5522 </r>
       <r>   -11.5591    21.9874   152.0042 </r>
       <r>   -11.4687    22.0589   154.0000 </r>
       <r>   -11.3782    22.1054   156.0000 </r>
       <r>   -11.2877     0.0000   156.0000 </r>
       <r>   -11.1972    14.7882   157.3380 </r>
       <r>   -11.1068    21.8254   159.9747 </r>
       <r>   -11.0163    44.1752   164.0000 </r>
       <r>   -10.9258    22.7208   166.0557 </r>
       <r>   -10.8353    21.4901   168.0000 </r>
       <r>   -10.7449     0.0000   168.0000 </r>
       <r>   -10.6544    22.1046   169.9999 </r>
       <r>   -10.5639     0.0000   170.0000 </r>
       <r>   -10.4734     0.9913   170.0897 </r>
       <r>   -10.3830    43.2196   174.0000 </r>
       <r>   -10.2925    22.1054   176.0000 </r>
       <r>   -10.2020    38.6054   179.4928 </r>
       <r>   -10.1115     0.0000   180.0000 </r>
       <r>   -10.0211     0.0000   180.0000 </r>
       <r>    -9.9306     0.0000   180.0000 </r>
       <r>    -9.8401    22.1054   182.0000 </r>
       <r>    -9.7496    43.8414   185.9666 </r>
       <r>    -9.6592    44.0572   189.9863 </r>
       <r>    -9.5687    22.0767   191.9974 </r>
       <r>    -9.4782    44.7091   196.0457 </r>
       <r>    -9.3877    21.5440   198.0000 </r>
       <r>    -9.2973    45.8823   202.1512 </r>
       <r>    -9.2068   156.5955   218.1681 </r>
       <r>    -9.1163    53.4192   228.8331 </r>
       <r>    -9.0258    44.1525   235.9984 </r>
       <r>    -8.9354    22.1054   238.0000 </r>
       <r>    -8.8449    10.8278   238.9796 </r>
       <r>    -8.7544    22.1054   242.0000 </r>
       <r>    -8.6639     0.8975   242.0812 </r>
       <r>    -8.5735    21.2080   244.0000 </r>
       <r>    -8.4830    32.3444   246.9264 </r>
       <r>    -8.3925    22.1054   250.0000 </r>
       <r>    -8.3020    22.1042   251.9999 </r>
       <r>    -8.2116    23.5443   254.1302 </r>
       <r>    -8.1211    75.0004   262.8305 </r>
       <r>    -8.0306    19.8837   265.7990 </r>
       <r>    -7.9401    42.1401   269.8126 </r>
       <r>    -7.8497    36.4235   273.2954 </r>
       <r>    -7.7592    66.3471   282.0028 </r>
       <r>    -7.6687   109.6143   291.9202 </r>
       <r>    -7.5782    44.2107   298.0000 </r>
       <r>    -7.4878     0.0000   298.0000 </r>
       <r>    -7.3973    67.3662   304.0950 </r>
       <r>    -7.3068    43.1606   308.0000 </r>
       <r>    -7.2163    22.1054   310.0000 </r>
       <r>    -7.1259     0.0000   310.0000 </r>
       <r>    -7.0354     0.0000   310.0000 </r>
       <r>    -6.9449     0.0000   310.0000 </r>
       <r>    -6.8544     0.0141   310.0013 </r>
       <r>    -6.7639    26.9133   312.4363 </r>
       <r>    -6.6735     0.0000   314.0000 </r>
       <r>    -6.5830    44.2020   317.9992 </r>
       <r>    -6.4925    69.3682   324.2761 </r>
       <r>    -6.4020   119.5086   336.8126 </r>
       <r>    -6.3116    63.1956   343.7177 </r>
       <r>    -6.2211     0.0000   344.0000 </r>
       <r>    -6.1306     0.0556   344.0050 </r>
       <r>    -6.0401    22.0498   346.0000 </r>
       <r>    -5.9497    22.0950   347.9991 </r>
       <r>    -5.8592    79.3193   355.1768 </r>
       <r>    -5.7687    42.0255   359.8023 </r>
       <r>    -5.6782     0.0000   360.0000 </r>
       <r>    -5.5878     0.0000   360.0000 </r>
       <r>    -5.4973    22.1051   362.0000 </r>
       <r>    -5.4068     0.0000   362.0000 </r>
       <r>    -5.3163     0.0000   362.0000 </r>
       <r>    -5.2259     6.8960   362.6239 </r>
       <r>    -5.1354    68.7518   370.2204 </r>
       <r>    -5.0449    22.1054   374.0000 </r>
       <r>    -4.9544    23.5455   376.1303 </r>
       <r>    -4.8640    86.9817   384.0000 </r>
       <r>    -4.7735     0.0000   384.0000 </r>
       <r>    -4.6830    22.1054   386.0000 </r>
       <r>    -4.5925     0.0000   386.0000 </r>
       <r>    -4.5021     0.0000   386.0000 </r>
       <r>    -4.4116     0.0000   386.0000 </r>
       <r>    -4.3211     0.0000   386.0000 </r>
       <r>    -4.2306     0.0000   386.0000 </r>
       <r>    -4.1402     0.0000   386.0000 </r>
       <r>    -4.0497     0.0000   386.0000 </r>
       <r>    -3.9592     0.0000   386.0000 </r>
       <r>    -3.8687     0.0000   386.0000 </r>
       <r>    -3.7783     0.0000   386.0000 </r>
       <r>    -3.6878     0.0000   386.0000 </r>
       <r>    -3.5973     0.0000   386.0000 </r>
       <r>    -3.5068     0.0000   386.0000 </r>
       <r>    -3.4164     0.0000   386.0000 </r>
       <r>    -3.3259     0.0000   386.0000 </r>
       <r>    -3.2354     0.0000   386.0000 </r>
       <r>    -3.1449     0.0000   386.0000 </r>
       <r>    -3.0545     0.0000   386.0000 </r>
       <r>    -2.9640     0.0000   386.0000 </r>
       <r>    -2.8735     0.0000   386.0000 </r>
       <r>    -2.7830     0.0000   386.0000 </r>
       <r>    -2.6926     0.0000   386.0000 </r>
       <r>    -2.6021     0.0000   386.0000 </r>
       <r>    -2.5116     0.0000   386.0000 </r>
       <r>    -2.4211     0.0000   386.0000 </r>
       <r>    -2.3306     0.0000   386.0000 </r>
       <r>    -2.2402     0.0000   386.0000 </r>
       <r>    -2.1497     0.0000   386.0000 </r>
       <r>    -2.0592     0.0000   386.0000 </r>
       <r>    -1.9687     0.0000   386.0000 </r>
       <r>    -1.8783     0.0000   386.0000 </r>
       <r>    -1.7878     0.0000   386.0000 </r>
       <r>    -1.6973     0.0000   386.0000 </r>
       <r>    -1.6068     0.0000   386.0000 </r>
       <r>    -1.5164     0.0000   386.0000 </r>
       <r>    -1.4259     0.0000   386.0000 </r>
       <r>    -1.3354     0.0451   386.0041 </r>
       <r>    -1.2449    22.0603   388.0000 </r>
       <r>    -1.1545    22.1054   390.0000 </r>
       <r>    -1.0640     0.0000   390.0000 </r>
       <r>    -0.9735     0.0000   390.0000 </r>
       <r>    -0.8830     0.0000   390.0000 </r>
       <r>    -0.7926     0.0000   390.0000 </r>
       <r>    -0.7021     0.0000   390.0000 </r>
       <r>    -0.6116     0.0000   390.0000 </r>
       <r>    -0.5211     0.0000   390.0000 </r>
       <r>    -0.4307     0.0000   390.0000 </r>
       <r>    -0.3402     0.0000   390.0000 </r>
       <r>    -0.2497     0.0000   390.0000 </r>
       <r>    -0.1592     0.0000   390.0000 </r>
       <r>    -0.0688     0.0000   390.0000 </r>
       <r>     0.0217     0.0000   390.0000 </r>
       <r>     0.1122    22.1054   392.0000 </r>
       <r>     0.2027     8.1611   392.7384 </r>
       <r>     0.2931    71.8012   400.4962 </r>
       <r>     0.3836    42.7068   405.9469 </r>
       <r>     0.4741    27.6373   410.5005 </r>
       <r>     0.5646    22.1054   414.0000 </r>
       <r>     0.6550    22.1054   416.0000 </r>
       <r>     0.7455    18.7052   417.6924 </r>
       <r>     0.8360    95.5089   428.6412 </r>
       <r>     0.9265    44.1934   434.0000 </r>
       <r>     1.0169    29.5220   436.6710 </r>
       <r>     1.1074    23.4254   440.1194 </r>
       <r>     1.1979    20.7855   442.0000 </r>
       <r>     1.2884     0.0000   442.0000 </r>
       <r>     1.3788     0.0000   442.0000 </r>
       <r>     1.4693     0.0027   442.0002 </r>
       <r>     1.5598    22.1028   444.0000 </r>
       <r>     1.6503     0.0112   444.0010 </r>
       <r>     1.7407   107.5734   453.7338 </r>
       <r>     1.8312    45.1439   460.0844 </r>
       <r>     1.9217   133.0734   472.1251 </r>
       <r>     2.0122    22.2373   476.0119 </r>
       <r>     2.1026    39.9337   479.6250 </r>
       <r>     2.1931    66.2423   488.0000 </r>
       <r>     2.2836     0.0000   488.0000 </r>
       <r>     2.3741     0.0000   488.0000 </r>
       <r>     2.4646     0.0000   488.0000 </r>
       <r>     2.5550     0.0000   488.0000 </r>
       <r>     2.6455     0.0000   488.0000 </r>
       <r>     2.7360     0.0000   488.0000 </r>
       <r>     2.8265     0.0000   488.0000 </r>
       <r>     2.9169     0.0000   488.0000 </r>
       <r>     3.0074     0.0000   488.0000 </r>
       <r>     3.0979     0.0000   488.0000 </r>
       <r>     3.1884     0.0000   488.0000 </r>
       <r>     3.2788     0.0000   488.0000 </r>
       <r>     3.3693     0.0000   488.0000 </r>
      </set>
     </set>
    </array>
   </total>
  </dos>
 </calculation>
 <structure name="finalpos" >
  <crystal>
   <varray name="basis" >
    <v>      17.59966831       0.00000000       0.00000000 </v>
    <v>      -8.79983416      15.24175986       0.00000000 </v>
    <v>       0.00000000       0.00000000      19.92151445 </v>
   </varray>
   <i name="volume">   5343.94461817 </i>
   <varray name="rec_basis" >
    <v>       0.05681925       0.03280461       0.00000000 </v>
    <v>       0.00000000       0.06560922       0.00000000 </v>
    <v>       0.00000000       0.00000000       0.05019699 </v>
   </varray>
  </crystal>
  <varray name="positions" >
   <v>       0.99943010       0.00005992       0.50000000 </v>
   <v>       0.14164706       0.99815076       0.50000000 </v>
   <v>       0.28492260       0.99841663       0.50000000 </v>
   <v>       0.42850047       0.99871895       0.50000000 </v>
   <v>       0.57205839       0.00005992       0.50000000 </v>
   <v>       0.71530655       0.00214292       0.50000000 </v>
   <v>       0.85826494       0.00214292       0.50000000 </v>
   <v>       0.00080792       0.14408264       0.50000000 </v>
   <v>       0.14259355       0.14244783       0.50000000 </v>
   <v>       0.28470221       0.14112972       0.50000000 </v>
   <v>       0.42785608       0.14112972       0.50000000 </v>
   <v>       0.57128286       0.14244783       0.50000000 </v>
   <v>       0.71470329       0.14408264       0.50000000 </v>
   <v>       0.85805263       0.14467669       0.50000000 </v>
   <v>       0.00095476       0.28713011       0.50000000 </v>
   <v>       0.14372552       0.28645370       0.50000000 </v>
   <v>       0.28540977       0.28469374       0.50000000 </v>
   <v>       0.42724431       0.28306005       0.50000000 </v>
   <v>       0.57071254       0.28469374       0.50000000 </v>
   <v>       0.71415674       0.28645370       0.50000000 </v>
   <v>       0.85760392       0.28713011       0.50000000 </v>
   <v>       0.00054479       0.42966101       0.50000000 </v>
   <v>       0.14422690       0.42957551       0.50000000 </v>
   <v>       0.28730213       0.42918005       0.50000000 </v>
   <v>       0.42797654       0.42569726       0.50000000 </v>
   <v>       0.56914930       0.42569726       0.50000000 </v>
   <v>       0.71330650       0.42918005       0.50000000 </v>
   <v>       0.85677719       0.42957551       0.50000000 </v>
   <v>       0.99928255       0.57181462       0.50000000 </v>
   <v>       0.14396064       0.57181462       0.50000000 </v>
   <v>       0.28862787       0.57181625       0.50000000 </v>
   <v>       0.43313209       0.57215564       0.50000000 </v>
   <v>       0.71045212       0.57215564       0.50000000 </v>
   <v>       0.85461695       0.57181625       0.50000000 </v>
   <v>       0.99707234       0.71370518       0.50000000 </v>
   <v>       0.14255519       0.71368182       0.50000000 </v>
   <v>       0.28806142       0.71370518       0.50000000 </v>
   <v>       0.43464191       0.71382540       0.50000000 </v>
   <v>       0.58510826       0.71626937       0.50000000 </v>
   <v>       0.70258968       0.71626937       0.50000000 </v>
   <v>       0.85061206       0.71382540       0.50000000 </v>
   <v>       0.99777175       0.85613493       0.50000000 </v>
   <v>       0.14160898       0.85591288       0.50000000 </v>
   <v>       0.28573247       0.85591288       0.50000000 </v>
   <v>       0.42979175       0.85613493       0.50000000 </v>
   <v>       0.57342541       0.85758690       0.50000000 </v>
   <v>       0.71640633       0.86138410       0.50000000 </v>
   <v>       0.85559006       0.85758690       0.50000000 </v>
   <v>       0.04754270       0.09547788       0.50000000 </v>
   <v>       0.18957833       0.09405657       0.50000000 </v>
   <v>       0.33254182       0.09365506       0.50000000 </v>
   <v>       0.47590681       0.09405657       0.50000000 </v>
   <v>       0.61936376       0.09547788       0.50000000 </v>
   <v>       0.76280004       0.09719274       0.50000000 </v>
   <v>       0.90582126       0.09719274       0.50000000 </v>
   <v>       0.04854983       0.23934281       0.50000000 </v>
   <v>       0.19048138       0.23782962       0.50000000 </v>
   <v>       0.33234878       0.23634667       0.50000000 </v>
   <v>       0.47542646       0.23634667       0.50000000 </v>
   <v>       0.61877681       0.23782962       0.50000000 </v>
   <v>       0.76222155       0.23934281       0.50000000 </v>
   <v>       0.90562797       0.23982737       0.50000000 </v>
   <v>       0.04871288       0.38232824       0.50000000 </v>
   <v>       0.19188940       0.38184213       0.50000000 </v>
   <v>       0.33352206       0.38013969       0.50000000 </v>
   <v>       0.47472270       0.37801683       0.50000000 </v>
   <v>       0.61804620       0.38013969       0.50000000 </v>
   <v>       0.76138130       0.38184213       0.50000000 </v>
   <v>       0.90504393       0.38232824       0.50000000 </v>
   <v>       0.04810654       0.52478452       0.50000000 </v>
   <v>       0.19263929       0.52476864       0.50000000 </v>
   <v>       0.33696521       0.52455433       0.50000000 </v>
   <v>       0.47833704       0.52146721       0.50000000 </v>
   <v>       0.61455874       0.52146721       0.50000000 </v>
   <v>       0.75901769       0.52455433       0.50000000 </v>
   <v>       0.90355792       0.52476864       0.50000000 </v>
   <v>       0.04642473       0.66685228       0.50000000 </v>
   <v>       0.19185612       0.66685228       0.50000000 </v>
   <v>       0.33777931       0.66688794       0.50000000 </v>
   <v>       0.48615700       0.66710760       0.50000000 </v>
   <v>       0.75237918       0.66710760       0.50000000 </v>
   <v>       0.90053720       0.66688794       0.50000000 </v>
   <v>       0.04582562       0.80879365       0.50000000 </v>
   <v>       0.19009580       0.80876303       0.50000000 </v>
   <v>       0.33439660       0.80879365       0.50000000 </v>
   <v>       0.47844872       0.80897069       0.50000000 </v>
   <v>       0.62209487       0.81129474       0.50000000 </v>
   <v>       0.76062845       0.81129474       0.50000000 </v>
   <v>       0.90195054       0.80897069       0.50000000 </v>
   <v>       0.04629157       0.95154386       0.50000000 </v>
   <v>       0.18948291       0.95113037       0.50000000 </v>
   <v>       0.33307603       0.95113037       0.50000000 </v>
   <v>       0.47668087       0.95154386       0.50000000 </v>
   <v>       0.62015751       0.95313740       0.50000000 </v>
   <v>       0.76355772       0.95568687       0.50000000 </v>
   <v>       0.90440847       0.95313740       0.50000000 </v>
   <v>       0.56830873       0.56518888       0.50000000 </v>
  </varray>
 </structure>
</modeling>
