<?xml version="1.0" encoding="ISO-8859-1"?>
<modeling>
 <generator>
  <i name="program" type="string">vasp </i>
  <i name="version" type="string">5.4.4.18Apr17-6-g9f103f2a35  </i>
  <i name="subversion" type="string">(build Oct 18 2020 22:16:12) gamma-only         parallel </i>
  <i name="platform" type="string">UA-vaughan-2020a </i>
  <i name="date" type="string">2023 03 21 </i>
  <i name="time" type="string">21:01:40 </i>
 </generator>
 <incar>
  <i type="string" name="PREC">accurate</i>
  <i type="int" name="IALGO">    38</i>
  <i type="logical" name="ADDGRID"> T  </i>
  <i type="int" name="NELMIN">     5</i>
  <i type="int" name="IBRION">    -1</i>
  <i name="EDIFF">      0.00000001</i>
  <i name="EDIFFG">     -0.00000001</i>
  <i type="int" name="NSW">     0</i>
  <i type="int" name="ISIF">     2</i>
  <i name="ENCUT">    500.00000000</i>
  <i type="logical" name="LREAL"> F  </i>
  <i type="int" name="ISMEAR">     0</i>
  <i name="SIGMA">      0.01000000</i>
  <i type="logical" name="LWAVE"> F  </i>
  <i type="logical" name="LCHARG"> F  </i>
  <v type="int" name="KPOINT_BSE">    -1     0     0     0</v>
 </incar>
 <structure name="primitive_cell" >
  <crystal>
   <varray name="basis" >
    <v>      17.59966831       0.00000000       0.00000000 </v>
    <v>      -8.79983416      15.24175986       0.00000000 </v>
    <v>       0.00000000       0.00000000      19.92151445 </v>
   </varray>
   <i name="volume">   5343.94461817 </i>
   <varray name="rec_basis" >
    <v>       0.05681925       0.03280461       0.00000000 </v>
    <v>       0.00000000       0.06560922       0.00000000 </v>
    <v>       0.00000000       0.00000000       0.05019699 </v>
   </varray>
  </crystal>
  <varray name="positions" >
   <v>      -0.00056990       0.00005992      -0.50000000 </v>
   <v>      -0.09559153      -0.04686260      -0.50000000 </v>
   <v>       0.04629157      -0.04845614      -0.50000000 </v>
   <v>       0.04754270       0.09547788      -0.50000000 </v>
   <v>      -0.14173506       0.00214292      -0.50000000 </v>
   <v>       0.14259355       0.14244783      -0.50000000 </v>
   <v>       0.14164706      -0.00128105      -0.50000000 </v>
   <v>      -0.00222825      -0.14386507      -0.50000000 </v>
   <v>      -0.14440994      -0.14241310      -0.50000000 </v>
   <v>       0.00080792       0.14408264      -0.50000000 </v>
   <v>       0.18957833       0.09405657      -0.50000000 </v>
   <v>      -0.09417874       0.09719274      -0.50000000 </v>
   <v>      -0.09804946      -0.19102931      -0.50000000 </v>
   <v>      -0.23644228      -0.04431313      -0.50000000 </v>
   <v>      -0.23937155      -0.18870526      -0.50000000 </v>
   <v>       0.19048138       0.23782962      -0.50000000 </v>
   <v>       0.04582562      -0.19120635      -0.50000000 </v>
   <v>       0.18948291      -0.04886963      -0.50000000 </v>
   <v>       0.04854983       0.23934281      -0.50000000 </v>
   <v>      -0.28359367      -0.13861590      -0.50000000 </v>
   <v>       0.28470221       0.14112972      -0.50000000 </v>
   <v>      -0.14194737       0.14467669      -0.50000000 </v>
   <v>      -0.14938794      -0.28617460      -0.50000000 </v>
   <v>       0.14160898      -0.14408712      -0.50000000 </v>
   <v>       0.14372552       0.28645370      -0.50000000 </v>
   <v>      -0.28469345       0.00214292      -0.50000000 </v>
   <v>      -0.00292766      -0.28629482      -0.50000000 </v>
   <v>       0.28540977       0.28469374      -0.50000000 </v>
   <v>       0.00095476       0.28713011      -0.50000000 </v>
   <v>       0.28492260      -0.00158337      -0.50000000 </v>
   <v>      -0.29741032      -0.28373063      -0.50000000 </v>
   <v>      -0.09946280      -0.33311206      -0.50000000 </v>
   <v>       0.33234878       0.23634667      -0.50000000 </v>
   <v>      -0.23719996       0.09719274      -0.50000000 </v>
   <v>       0.33254182       0.09365506      -0.50000000 </v>
   <v>      -0.09437203       0.23982737      -0.50000000 </v>
   <v>      -0.24762082      -0.33289240      -0.50000000 </v>
   <v>      -0.37790513      -0.18870526      -0.50000000 </v>
   <v>       0.19188940       0.38184213      -0.50000000 </v>
   <v>       0.19009580      -0.19123697      -0.50000000 </v>
   <v>      -0.37984249      -0.04686260      -0.50000000 </v>
   <v>       0.04642473      -0.33314772      -0.50000000 </v>
   <v>       0.33352206       0.38013969      -0.50000000 </v>
   <v>       0.04871288       0.38232824      -0.50000000 </v>
   <v>       0.33307603      -0.04886963      -0.50000000 </v>
   <v>      -0.41489174      -0.28373063      -0.50000000 </v>
   <v>      -0.42657459      -0.14241310      -0.50000000 </v>
   <v>       0.42724431       0.28306005      -0.50000000 </v>
   <v>      -0.14538305      -0.42818375      -0.50000000 </v>
   <v>      -0.28529671       0.14408264      -0.50000000 </v>
   <v>      -0.28954788      -0.42784436      -0.50000000 </v>
   <v>       0.42785608       0.14112972      -0.50000000 </v>
   <v>       0.28730213       0.42861186      -0.50000000 </v>
   <v>      -0.14239608       0.28713011      -0.50000000 </v>
   <v>       0.14422690       0.42957551      -0.50000000 </v>
   <v>       0.14255519      -0.28631818      -0.50000000 </v>
   <v>       0.28573247      -0.14408712      -0.50000000 </v>
   <v>      -0.24098231      -0.47544567      -0.50000000 </v>
   <v>       0.47542646       0.23634667      -0.50000000 </v>
   <v>      -0.23777845       0.23934281      -0.50000000 </v>
   <v>       0.42797654       0.42569726      -0.50000000 </v>
   <v>      -0.42794161       0.00005992      -0.50000000 </v>
   <v>      -0.00071745      -0.42818538      -0.50000000 </v>
   <v>       0.00054479       0.42966101      -0.50000000 </v>
   <v>       0.42850047      -0.00128105      -0.50000000 </v>
   <v>      -0.43169127      -0.43481112      -0.50000000 </v>
   <v>       0.47472270       0.37801683      -0.50000000 </v>
   <v>      -0.09644208      -0.47523136      -0.50000000 </v>
   <v>      -0.38063624       0.09547788      -0.50000000 </v>
   <v>       0.47590681       0.09405657      -0.50000000 </v>
   <v>      -0.09495607       0.38232824      -0.50000000 </v>
   <v>      -0.38544126      -0.47853279      -0.50000000 </v>
   <v>       0.48615700      -0.33289240      -0.50000000 </v>
   <v>       0.47844872      -0.19102931      -0.50000000 </v>
   <v>       0.19263929      -0.47523136      -0.50000000 </v>
   <v>       0.33696521      -0.47544567      -0.50000000 </v>
   <v>       0.19185612      -0.33314772      -0.50000000 </v>
   <v>       0.33439660      -0.19120635      -0.50000000 </v>
   <v>       0.43464191      -0.28617460      -0.50000000 </v>
   <v>      -0.28669350       0.42918005      -0.50000000 </v>
   <v>      -0.42928746       0.28469374      -0.50000000 </v>
   <v>      -0.28584326       0.28645370      -0.50000000 </v>
   <v>       0.28862787      -0.42818375      -0.50000000 </v>
   <v>       0.28806142      -0.28629482      -0.50000000 </v>
   <v>       0.47668087      -0.04845614      -0.50000000 </v>
   <v>       0.47833704      -0.47853279      -0.50000000 </v>
   <v>       0.04810654      -0.47521548      -0.50000000 </v>
   <v>       0.43313209      -0.42784436      -0.50000000 </v>
   <v>       0.42979175      -0.14386507      -0.50000000 </v>
   <v>      -0.43085070       0.42569726      -0.50000000 </v>
   <v>      -0.14322281       0.42957551      -0.50000000 </v>
   <v>      -0.42871714       0.14244783      -0.50000000 </v>
   <v>       0.14396064      -0.42818538      -0.50000000 </v>
   <v>      -0.23861870       0.38184213      -0.50000000 </v>
   <v>      -0.38122319       0.23782962      -0.50000000 </v>
   <v>      -0.38195380       0.38013969      -0.50000000 </v>
   <v>       0.33777931      -0.33311206      -0.50000000 </v>
  </varray>
 </structure>
 <varray name="primitive_index" >
  <v type="int" >        1 </v>
  <v type="int" >       96 </v>
  <v type="int" >       90 </v>
  <v type="int" >       49 </v>
  <v type="int" >        7 </v>
  <v type="int" >        9 </v>
  <v type="int" >        2 </v>
  <v type="int" >       42 </v>
  <v type="int" >       48 </v>
  <v type="int" >        8 </v>
  <v type="int" >       50 </v>
  <v type="int" >       55 </v>
  <v type="int" >       89 </v>
  <v type="int" >       95 </v>
  <v type="int" >       88 </v>
  <v type="int" >       57 </v>
  <v type="int" >       83 </v>
  <v type="int" >       91 </v>
  <v type="int" >       56 </v>
  <v type="int" >       47 </v>
  <v type="int" >       10 </v>
  <v type="int" >       14 </v>
  <v type="int" >       41 </v>
  <v type="int" >       43 </v>
  <v type="int" >       16 </v>
  <v type="int" >        6 </v>
  <v type="int" >       35 </v>
  <v type="int" >       17 </v>
  <v type="int" >       15 </v>
  <v type="int" >        3 </v>
  <v type="int" >       40 </v>
  <v type="int" >       82 </v>
  <v type="int" >       58 </v>
  <v type="int" >       54 </v>
  <v type="int" >       51 </v>
  <v type="int" >       62 </v>
  <v type="int" >       81 </v>
  <v type="int" >       87 </v>
  <v type="int" >       64 </v>
  <v type="int" >       84 </v>
  <v type="int" >       94 </v>
  <v type="int" >       77 </v>
  <v type="int" >       65 </v>
  <v type="int" >       63 </v>
  <v type="int" >       92 </v>
  <v type="int" >       39 </v>
  <v type="int" >       46 </v>
  <v type="int" >       18 </v>
  <v type="int" >       34 </v>
  <v type="int" >       13 </v>
  <v type="int" >       33 </v>
  <v type="int" >       11 </v>
  <v type="int" >       24 </v>
  <v type="int" >       21 </v>
  <v type="int" >       23 </v>
  <v type="int" >       36 </v>
  <v type="int" >       44 </v>
  <v type="int" >       75 </v>
  <v type="int" >       59 </v>
  <v type="int" >       61 </v>
  <v type="int" >       25 </v>
  <v type="int" >        5 </v>
  <v type="int" >       29 </v>
  <v type="int" >       22 </v>
  <v type="int" >        4 </v>
  <v type="int" >       97 </v>
  <v type="int" >       66 </v>
  <v type="int" >       76 </v>
  <v type="int" >       53 </v>
  <v type="int" >       52 </v>
  <v type="int" >       69 </v>
  <v type="int" >       74 </v>
  <v type="int" >       80 </v>
  <v type="int" >       86 </v>
  <v type="int" >       71 </v>
  <v type="int" >       72 </v>
  <v type="int" >       78 </v>
  <v type="int" >       85 </v>
  <v type="int" >       38 </v>
  <v type="int" >       27 </v>
  <v type="int" >       19 </v>
  <v type="int" >       20 </v>
  <v type="int" >       31 </v>
  <v type="int" >       37 </v>
  <v type="int" >       93 </v>
  <v type="int" >       73 </v>
  <v type="int" >       70 </v>
  <v type="int" >       32 </v>
  <v type="int" >       45 </v>
  <v type="int" >       26 </v>
  <v type="int" >       28 </v>
  <v type="int" >       12 </v>
  <v type="int" >       30 </v>
  <v type="int" >       68 </v>
  <v type="int" >       60 </v>
  <v type="int" >       67 </v>
  <v type="int" >       79 </v>
 </varray>
 <kpoints>
  <generation param="Gamma">
   <v type="int" name="divisions">       1        1        1 </v>
   <v name="usershift">      0.00000000       0.00000000       0.00000000 </v>
   <v name="genvec1">      1.00000000      -0.00000000       0.00000000 </v>
   <v name="genvec2">      0.00000000       1.00000000       0.00000000 </v>
   <v name="genvec3">      0.00000000       0.00000000       1.00000000 </v>
   <v name="shift">      0.00000000       0.00000000       0.00000000 </v>
  </generation>
  <varray name="kpointlist" >
   <v>       0.00000000       0.00000000       0.00000000 </v>
  </varray>
  <varray name="weights" >
   <v>       1.00000000 </v>
  </varray>
 </kpoints>
 <parameters>
  <separator name="general" >
   <i type="string" name="SYSTEM">unknown system</i>
   <i type="logical" name="LCOMPAT"> F  </i>
  </separator>
  <separator name="electronic" >
   <i type="string" name="PREC">accura</i>
   <i name="ENMAX">    500.00000000</i>
   <i name="ENAUG">    644.87300000</i>
   <i name="EDIFF">      0.00000001</i>
   <i type="int" name="IALGO">    38</i>
   <i type="int" name="IWAVPR">    10</i>
   <i type="int" name="NBANDS">   244</i>
   <i name="NELECT">    388.00000000</i>
   <i type="int" name="TURBO">     0</i>
   <i type="int" name="IRESTART">     0</i>
   <i type="int" name="NREBOOT">     0</i>
   <i type="int" name="NMIN">     0</i>
   <i name="EREF">      0.00000000</i>
   <separator name="electronic smearing" >
    <i type="int" name="ISMEAR">     0</i>
    <i name="SIGMA">      0.01000000</i>
    <i name="KSPACING">      0.50000000</i>
    <i type="logical" name="KGAMMA"> T  </i>
   </separator>
   <separator name="electronic projectors" >
    <i type="logical" name="LREAL"> F  </i>
    <v name="ROPT">      0.00000000      0.00000000      0.00000000</v>
    <i type="int" name="LMAXPAW">  -100</i>
    <i type="int" name="LMAXMIX">     2</i>
    <i type="logical" name="NLSPLINE"> F  </i>
   </separator>
   <separator name="electronic startup" >
    <i type="int" name="ISTART">     0</i>
    <i type="int" name="ICHARG">     2</i>
    <i type="int" name="INIWAV">     1</i>
   </separator>
   <separator name="electronic spin" >
    <i type="int" name="ISPIN">     1</i>
    <i type="logical" name="LNONCOLLINEAR"> F  </i>
    <v name="MAGMOM">      1.00000000      1.00000000      1.00000000      1.00000000      1.00000000      1.00000000      1.00000000      1.00000000      1.00000000      1.00000000      1.00000000      1.00000000      1.00000000      1.00000000      1.00000000      1.00000000      1.00000000      1.00000000      1.00000000      1.00000000
      1.00000000      1.00000000      1.00000000      1.00000000      1.00000000      1.00000000      1.00000000      1.00000000      1.00000000      1.00000000      1.00000000      1.00000000      1.00000000      1.00000000      1.00000000      1.00000000      1.00000000      1.00000000      1.00000000      1.00000000
      1.00000000      1.00000000      1.00000000      1.00000000      1.00000000      1.00000000      1.00000000      1.00000000      1.00000000      1.00000000      1.00000000      1.00000000      1.00000000      1.00000000      1.00000000      1.00000000      1.00000000      1.00000000      1.00000000      1.00000000
      1.00000000      1.00000000      1.00000000      1.00000000      1.00000000      1.00000000      1.00000000      1.00000000      1.00000000      1.00000000      1.00000000      1.00000000      1.00000000      1.00000000      1.00000000      1.00000000      1.00000000      1.00000000      1.00000000      1.00000000
      1.00000000      1.00000000      1.00000000      1.00000000      1.00000000      1.00000000      1.00000000      1.00000000      1.00000000      1.00000000      1.00000000      1.00000000      1.00000000      1.00000000      1.00000000      1.00000000      1.00000000</v>
    <i name="NUPDOWN">     -1.00000000</i>
    <i type="logical" name="LSORBIT"> F  </i>
    <v name="SAXIS">      0.00000000      0.00000000      1.00000000</v>
    <i type="logical" name="LSPIRAL"> F  </i>
    <v name="QSPIRAL">      0.00000000      0.00000000      0.00000000</v>
    <i type="logical" name="LZEROZ"> F  </i>
   </separator>
   <separator name="electronic exchange-correlation" >
    <i type="logical" name="LASPH"> F  </i>
    <i type="logical" name="LMETAGGA"> F  </i>
   </separator>
   <separator name="electronic convergence" >
    <i type="int" name="NELM">    60</i>
    <i type="int" name="NELMDL">    -5</i>
    <i type="int" name="NELMIN">     5</i>
    <i name="ENINI">    500.00000000</i>
    <separator name="electronic convergence detail" >
     <i type="logical" name="LDIAG"> T  </i>
     <i type="logical" name="LSUBROT"> F  </i>
     <i name="WEIMIN">      0.00000000</i>
     <i name="EBREAK">      0.00000000</i>
     <i name="DEPER">      0.30000000</i>
     <i type="int" name="NRMM">     4</i>
     <i name="TIME">      0.40000000</i>
    </separator>
   </separator>
   <separator name="electronic mixer" >
    <i name="AMIX">      0.40000000</i>
    <i name="BMIX">      1.00000000</i>
    <i name="AMIN">      0.10000000</i>
    <i name="AMIX_MAG">      1.60000000</i>
    <i name="BMIX_MAG">      1.00000000</i>
    <separator name="electronic mixer details" >
     <i type="int" name="IMIX">     4</i>
     <i type="logical" name="MIXFIRST"> F  </i>
     <i type="int" name="MAXMIX">   -45</i>
     <i name="WC">    100.00000000</i>
     <i type="int" name="INIMIX">     1</i>
     <i type="int" name="MIXPRE">     1</i>
     <i type="int" name="MREMOVE">     5</i>
    </separator>
   </separator>
   <separator name="electronic dipolcorrection" >
    <i type="logical" name="LDIPOL"> F  </i>
    <i type="logical" name="LMONO"> F  </i>
    <i type="int" name="IDIPOL">     0</i>
    <i name="EPSILON">      1.00000000</i>
    <v name="DIPOL">   -100.00000000   -100.00000000   -100.00000000</v>
    <i name="EFIELD">      0.00000000</i>
   </separator>
  </separator>
  <separator name="grids" >
   <i type="int" name="NGX">   128</i>
   <i type="int" name="NGY">   128</i>
   <i type="int" name="NGZ">   150</i>
   <i type="int" name="NGXF">   256</i>
   <i type="int" name="NGYF">   256</i>
   <i type="int" name="NGZF">   300</i>
   <i type="logical" name="ADDGRID"> T  </i>
  </separator>
  <separator name="ionic" >
   <i type="int" name="NSW">     0</i>
   <i type="int" name="IBRION">    -1</i>
   <i type="int" name="MDALGO">     0</i>
   <i type="int" name="ISIF">     2</i>
   <i name="PSTRESS">      0.00000000</i>
   <i name="EDIFFG">     -0.00000001</i>
   <i type="int" name="NFREE">     0</i>
   <i name="POTIM">      0.50000000</i>
   <i name="SMASS">     -3.00000000</i>
   <i name="SCALEE">      1.00000000</i>
  </separator>
  <separator name="ionic md" >
   <i name="TEBEG">      0.00010000</i>
   <i name="TEEND">      0.00010000</i>
   <i type="int" name="NBLOCK">     1</i>
   <i type="int" name="KBLOCK">     1</i>
   <i type="int" name="NPACO">   256</i>
   <i name="APACO">     16.00000000</i>
  </separator>
  <separator name="symmetry" >
   <i type="int" name="ISYM">     2</i>
   <i name="SYMPREC">      0.00001000</i>
  </separator>
  <separator name="dos" >
   <i type="int" name="LORBIT">     0</i>
   <v name="RWIGS">     -1.00000000     -1.00000000     -1.00000000</v>
   <i type="int" name="NEDOS">   301</i>
   <i name="EMIN">     10.00000000</i>
   <i name="EMAX">    -10.00000000</i>
   <i name="EFERMI">      0.00000000</i>
  </separator>
  <separator name="writing" >
   <i type="int" name="NWRITE">     2</i>
   <i type="logical" name="LWAVE"> F  </i>
   <i type="logical" name="LDOWNSAMPLE"> F  </i>
   <i type="logical" name="LCHARG"> F  </i>
   <i type="logical" name="LPARD"> F  </i>
   <i type="logical" name="LVTOT"> F  </i>
   <i type="logical" name="LVHAR"> F  </i>
   <i type="logical" name="LELF"> F  </i>
   <i type="logical" name="LOPTICS"> F  </i>
   <v name="STM">      0.00000000      0.00000000      0.00000000      0.00000000      0.00000000      0.00000000      0.00000000</v>
  </separator>
  <separator name="performance" >
   <i type="int" name="NPAR">     4</i>
   <i type="int" name="NSIM">     4</i>
   <i type="int" name="NBLK">    -1</i>
   <i type="logical" name="LPLANE"> T  </i>
   <i type="logical" name="LSCALAPACK"> T  </i>
   <i type="logical" name="LSCAAWARE"> F  </i>
   <i type="logical" name="LSCALU"> F  </i>
   <i type="logical" name="LASYNC"> F  </i>
   <i type="logical" name="LORBITALREAL"> F  </i>
  </separator>
  <separator name="miscellaneous" >
   <i type="int" name="IDIOT">     3</i>
   <i type="int" name="ISPECIAL">     0</i>
   <i type="logical" name="LMUSIC"> F  </i>
   <v name="POMASS">     10.81100000     14.00100000     12.01100000</v>
   <v name="DARWINR">      0.00000000      0.00000000      0.00000000</v>
   <v name="DARWINV">      1.00000000      1.00000000      1.00000000</v>
   <i type="logical" name="LCORR"> T  </i>
  </separator>
  <i type="logical" name="GGA_COMPAT"> T  </i>
  <i type="logical" name="LBERRY"> F  </i>
  <i type="int" name="ICORELEVEL">     0</i>
  <i type="logical" name="LDAU"> F  </i>
  <i type="int" name="I_CONSTRAINED_M">     0</i>
  <separator name="electronic exchange-correlation" >
   <i type="string" name="GGA">--</i>
   <i type="int" name="VOSKOWN">     0</i>
   <i type="logical" name="LHFCALC"> F  </i>
   <i type="string" name="PRECFOCK"></i>
   <i type="logical" name="LSYMGRAD"> F  </i>
   <i type="logical" name="LHFONE"> F  </i>
   <i type="logical" name="LRHFCALC"> F  </i>
   <i type="logical" name="LTHOMAS"> F  </i>
   <i type="logical" name="LMODELHF"> F  </i>
   <i name="ENCUT4O">     -1.00000000</i>
   <i type="int" name="EXXOEP">     0</i>
   <i type="int" name="FOURORBIT">     0</i>
   <i name="AEXX">      0.00000000</i>
   <i name="HFALPHA">      0.00000000</i>
   <i name="MCALPHA">      0.00000000</i>
   <i name="ALDAX">      1.00000000</i>
   <i name="AGGAX">      1.00000000</i>
   <i name="ALDAC">      1.00000000</i>
   <i name="AGGAC">      1.00000000</i>
   <i type="int" name="NKREDX">     1</i>
   <i type="int" name="NKREDY">     1</i>
   <i type="int" name="NKREDZ">     1</i>
   <i type="logical" name="SHIFTRED"> F  </i>
   <i type="logical" name="ODDONLY"> F  </i>
   <i type="logical" name="EVENONLY"> F  </i>
   <i type="int" name="LMAXFOCK">     0</i>
   <i type="int" name="NMAXFOCKAE">     0</i>
   <i type="logical" name="LFOCKAEDFT"> F  </i>
   <i name="HFSCREEN">      0.00000000</i>
   <i name="HFSCREENC">      0.00000000</i>
   <i type="int" name="NBANDSGWLOW">     0</i>
  </separator>
  <separator name="vdW DFT" >
   <i type="logical" name="LUSE_VDW"> F  </i>
   <i name="Zab_VDW">     -0.84910000</i>
   <i name="PARAM1">      0.12340000</i>
   <i name="PARAM2">      1.00000000</i>
   <i name="PARAM3">      0.00000000</i>
  </separator>
  <separator name="model GW" >
   <i type="int" name="MODEL_GW">     0</i>
   <i name="MODEL_EPS0">     33.05532754</i>
   <i name="MODEL_ALPHA">      1.00000000</i>
  </separator>
  <separator name="linear response parameters" >
   <i type="logical" name="LEPSILON"> F  </i>
   <i type="logical" name="LRPA"> F  </i>
   <i type="logical" name="LNABLA"> F  </i>
   <i type="logical" name="LVEL"> F  </i>
   <i type="int" name="KINTER">     0</i>
   <i name="CSHIFT">      0.10000000</i>
   <i name="OMEGAMAX">     -1.00000000</i>
   <i name="DEG_THRESHOLD">      0.00200000</i>
   <i name="RTIME">     -0.10000000</i>
   <i name="WPLASMAI">      0.00000000</i>
   <v name="DFIELD">      0.00000000      0.00000000      0.00000000</v>
   <v name="WPLASMA">      0.00000000      0.00000000      0.00000000      0.00000000      0.00000000      0.00000000      0.00000000      0.00000000      0.00000000</v>
  </separator>
  <separator name="orbital magnetization" >
   <i type="logical" name="NUCIND"> F  </i>
   <v name="MAGPOS">      0.00000000      0.00000000      0.00000000</v>
   <i type="logical" name="LNICSALL"> T  </i>
   <i type="logical" name="ORBITALMAG"> F  </i>
   <i type="logical" name="LMAGBLOCH"> F  </i>
   <i type="logical" name="LCHIMAG"> F  </i>
   <i type="logical" name="LGAUGE"> T  </i>
   <i type="int" name="MAGATOM">     0</i>
   <v name="MAGDIPOL">      0.00000000      0.00000000      0.00000000</v>
   <v name="AVECCONST">      0.00000000      0.00000000      0.00000000</v>
  </separator>
  <separator name="response functions" >
   <i type="logical" name="LADDER"> F  </i>
   <i type="logical" name="LRPAFORCE"> F  </i>
   <i type="logical" name="LFXC"> F  </i>
   <i type="logical" name="LHARTREE"> T  </i>
   <i type="int" name="IBSE">     0</i>
   <v type="int" name="KPOINT">    -1     0     0     0</v>
   <i type="logical" name="LTCTE"> F  </i>
   <i type="logical" name="LTETE"> F  </i>
   <i type="logical" name="LTRIPLET"> F  </i>
   <i type="logical" name="LFXCEPS"> F  </i>
   <i type="logical" name="LFXHEG"> F  </i>
   <i type="int" name="NATURALO">     2</i>
   <i type="logical" name="L2ORDER"> F  </i>
   <i type="logical" name="LMP2LT"> F  </i>
   <i type="logical" name="LUSEW"> F  </i>
   <i name="ENCUTGW">     -2.00000000</i>
   <i name="ENCUTGWSOFT">     -2.00000000</i>
   <i name="ENCUTLF">     -1.00000000</i>
   <i type="int" name="LMAXMP2">    -1</i>
   <i name="SCISSOR">      0.00000000</i>
   <i type="int" name="NOMEGA">     0</i>
   <i type="int" name="NOMEGAR">     0</i>
   <i type="int" name="NBANDSGW">    -1</i>
   <i type="int" name="NBANDSO">    -1</i>
   <i type="int" name="NBANDSV">    -1</i>
   <i type="int" name="NELM">     1</i>
   <i type="int" name="NELMHF">     1</i>
   <i type="int" name="DIM">     3</i>
   <i type="int" name="ANTIRES">     0</i>
   <i name="OMEGAMAX">    -30.00000000</i>
   <i name="OMEGAMIN">    -30.00000000</i>
   <i name="OMEGATL">   -200.00000000</i>
   <i type="int" name="OMEGAGRID">   140</i>
   <i name="CSHIFT">     -0.10000000</i>
   <i type="logical" name="SELFENERGY"> F  </i>
   <i type="logical" name="LSPECTRAL"> F  </i>
   <i type="logical" name="LSPECTRALGW"> F  </i>
   <i type="logical" name="LSINGLES"> F  </i>
   <i type="logical" name="LFERMIGW"> F  </i>
   <i type="logical" name="ODDONLYGW"> F  </i>
   <i type="logical" name="EVENONLYGW"> F  </i>
   <i type="int" name="NKREDLFX">     1</i>
   <i type="int" name="NKREDLFY">     1</i>
   <i type="int" name="NKREDLFZ">     1</i>
   <i type="int" name="MAXMEM">  2800</i>
   <i type="int" name="TELESCOPE">     0</i>
   <i type="int" name="TAUPAR">     1</i>
   <i type="int" name="OMEGAPAR">    -1</i>
   <i name="LAMBDA">      1.00000000</i>
  </separator>
  <separator name="External order field" >
   <i name="OFIELD_KAPPA">      0.00000000</i>
   <v name="OFIELD_K">      0.00000000      0.00000000      0.00000000</v>
   <i name="OFIELD_Q6_NEAR">      0.00000000</i>
   <i name="OFIELD_Q6_FAR">      0.00000000</i>
   <i name="OFIELD_A">      0.00000000</i>
  </separator>
 </parameters>
 <atominfo>
  <atoms>      97 </atoms>
  <types>       3 </types>
  <array name="atoms" >
   <dimension dim="1">ion</dimension>
   <field type="string">element</field>
   <field type="int">atomtype</field>
   <set>
    <rc><c>B </c><c>   1</c></rc>
    <rc><c>B </c><c>   1</c></rc>
    <rc><c>B </c><c>   1</c></rc>
    <rc><c>B </c><c>   1</c></rc>
    <rc><c>B </c><c>   1</c></rc>
    <rc><c>B </c><c>   1</c></rc>
    <rc><c>B </c><c>   1</c></rc>
    <rc><c>B </c><c>   1</c></rc>
    <rc><c>B </c><c>   1</c></rc>
    <rc><c>B </c><c>   1</c></rc>
    <rc><c>B </c><c>   1</c></rc>
    <rc><c>B </c><c>   1</c></rc>
    <rc><c>B </c><c>   1</c></rc>
    <rc><c>B </c><c>   1</c></rc>
    <rc><c>B </c><c>   1</c></rc>
    <rc><c>B </c><c>   1</c></rc>
    <rc><c>B </c><c>   1</c></rc>
    <rc><c>B </c><c>   1</c></rc>
    <rc><c>B </c><c>   1</c></rc>
    <rc><c>B </c><c>   1</c></rc>
    <rc><c>B </c><c>   1</c></rc>
    <rc><c>B </c><c>   1</c></rc>
    <rc><c>B </c><c>   1</c></rc>
    <rc><c>B </c><c>   1</c></rc>
    <rc><c>B </c><c>   1</c></rc>
    <rc><c>B </c><c>   1</c></rc>
    <rc><c>B </c><c>   1</c></rc>
    <rc><c>B </c><c>   1</c></rc>
    <rc><c>B </c><c>   1</c></rc>
    <rc><c>B </c><c>   1</c></rc>
    <rc><c>B </c><c>   1</c></rc>
    <rc><c>B </c><c>   1</c></rc>
    <rc><c>B </c><c>   1</c></rc>
    <rc><c>B </c><c>   1</c></rc>
    <rc><c>B </c><c>   1</c></rc>
    <rc><c>B </c><c>   1</c></rc>
    <rc><c>B </c><c>   1</c></rc>
    <rc><c>B </c><c>   1</c></rc>
    <rc><c>B </c><c>   1</c></rc>
    <rc><c>B </c><c>   1</c></rc>
    <rc><c>B </c><c>   1</c></rc>
    <rc><c>B </c><c>   1</c></rc>
    <rc><c>B </c><c>   1</c></rc>
    <rc><c>B </c><c>   1</c></rc>
    <rc><c>B </c><c>   1</c></rc>
    <rc><c>B </c><c>   1</c></rc>
    <rc><c>B </c><c>   1</c></rc>
    <rc><c>B </c><c>   1</c></rc>
    <rc><c>N </c><c>   2</c></rc>
    <rc><c>N </c><c>   2</c></rc>
    <rc><c>N </c><c>   2</c></rc>
    <rc><c>N </c><c>   2</c></rc>
    <rc><c>N </c><c>   2</c></rc>
    <rc><c>N </c><c>   2</c></rc>
    <rc><c>N </c><c>   2</c></rc>
    <rc><c>N </c><c>   2</c></rc>
    <rc><c>N </c><c>   2</c></rc>
    <rc><c>N </c><c>   2</c></rc>
    <rc><c>N </c><c>   2</c></rc>
    <rc><c>N </c><c>   2</c></rc>
    <rc><c>N </c><c>   2</c></rc>
    <rc><c>N </c><c>   2</c></rc>
    <rc><c>N </c><c>   2</c></rc>
    <rc><c>N </c><c>   2</c></rc>
    <rc><c>N </c><c>   2</c></rc>
    <rc><c>N </c><c>   2</c></rc>
    <rc><c>N </c><c>   2</c></rc>
    <rc><c>N </c><c>   2</c></rc>
    <rc><c>N </c><c>   2</c></rc>
    <rc><c>N </c><c>   2</c></rc>
    <rc><c>N </c><c>   2</c></rc>
    <rc><c>N </c><c>   2</c></rc>
    <rc><c>N </c><c>   2</c></rc>
    <rc><c>N </c><c>   2</c></rc>
    <rc><c>N </c><c>   2</c></rc>
    <rc><c>N </c><c>   2</c></rc>
    <rc><c>N </c><c>   2</c></rc>
    <rc><c>N </c><c>   2</c></rc>
    <rc><c>N </c><c>   2</c></rc>
    <rc><c>N </c><c>   2</c></rc>
    <rc><c>N </c><c>   2</c></rc>
    <rc><c>N </c><c>   2</c></rc>
    <rc><c>N </c><c>   2</c></rc>
    <rc><c>N </c><c>   2</c></rc>
    <rc><c>N </c><c>   2</c></rc>
    <rc><c>N </c><c>   2</c></rc>
    <rc><c>N </c><c>   2</c></rc>
    <rc><c>N </c><c>   2</c></rc>
    <rc><c>N </c><c>   2</c></rc>
    <rc><c>N </c><c>   2</c></rc>
    <rc><c>N </c><c>   2</c></rc>
    <rc><c>N </c><c>   2</c></rc>
    <rc><c>N </c><c>   2</c></rc>
    <rc><c>N </c><c>   2</c></rc>
    <rc><c>N </c><c>   2</c></rc>
    <rc><c>N </c><c>   2</c></rc>
    <rc><c>C </c><c>   3</c></rc>
   </set>
  </array>
  <array name="atomtypes" >
   <dimension dim="1">type</dimension>
   <field type="int">atomspertype</field>
   <field type="string">element</field>
   <field>mass</field>
   <field>valence</field>
   <field type="string">pseudopotential</field>
   <set>
    <rc><c>  48</c><c>B </c><c>     10.81100000</c><c>      3.00000000</c><c>  PAW_PBE B 06Sep2000                   </c></rc>
    <rc><c>  48</c><c>N </c><c>     14.00100000</c><c>      5.00000000</c><c>  PAW_PBE N 08Apr2002                   </c></rc>
    <rc><c>   1</c><c>C </c><c>     12.01100000</c><c>      4.00000000</c><c>  PAW_PBE C 08Apr2002                   </c></rc>
   </set>
  </array>
 </atominfo>
 <structure name="initialpos" >
  <crystal>
   <varray name="basis" >
    <v>      17.59966831       0.00000000       0.00000000 </v>
    <v>      -8.79983416      15.24175986       0.00000000 </v>
    <v>       0.00000000       0.00000000      19.92151445 </v>
   </varray>
   <i name="volume">   5343.94461817 </i>
   <varray name="rec_basis" >
    <v>       0.05681925       0.03280461       0.00000000 </v>
    <v>       0.00000000       0.06560922       0.00000000 </v>
    <v>       0.00000000       0.00000000       0.05019699 </v>
   </varray>
  </crystal>
  <varray name="positions" >
   <v>       0.99943010       0.00005992       0.50000000 </v>
   <v>       0.14164706       0.99871895       0.50000000 </v>
   <v>       0.28492260       0.99841663       0.50000000 </v>
   <v>       0.42850047       0.99871895       0.50000000 </v>
   <v>       0.57205839       0.00005992       0.50000000 </v>
   <v>       0.71530655       0.00214292       0.50000000 </v>
   <v>       0.85826494       0.00214292       0.50000000 </v>
   <v>       0.00080792       0.14408264       0.50000000 </v>
   <v>       0.14259355       0.14244783       0.50000000 </v>
   <v>       0.28470221       0.14112972       0.50000000 </v>
   <v>       0.42785608       0.14112972       0.50000000 </v>
   <v>       0.57128286       0.14244783       0.50000000 </v>
   <v>       0.71470329       0.14408264       0.50000000 </v>
   <v>       0.85805263       0.14467669       0.50000000 </v>
   <v>       0.00095476       0.28713011       0.50000000 </v>
   <v>       0.14372552       0.28645370       0.50000000 </v>
   <v>       0.28540977       0.28469374       0.50000000 </v>
   <v>       0.42724431       0.28306005       0.50000000 </v>
   <v>       0.57071254       0.28469374       0.50000000 </v>
   <v>       0.71415674       0.28645370       0.50000000 </v>
   <v>       0.85760392       0.28713011       0.50000000 </v>
   <v>       0.00054479       0.42966101       0.50000000 </v>
   <v>       0.14422690       0.42957551       0.50000000 </v>
   <v>       0.28730213       0.42861186       0.50000000 </v>
   <v>       0.42797654       0.42569726       0.50000000 </v>
   <v>       0.56914930       0.42569726       0.50000000 </v>
   <v>       0.71330650       0.42918005       0.50000000 </v>
   <v>       0.85677719       0.42957551       0.50000000 </v>
   <v>       0.99928255       0.57181462       0.50000000 </v>
   <v>       0.14396064       0.57181462       0.50000000 </v>
   <v>       0.28862787       0.57181625       0.50000000 </v>
   <v>       0.43313209       0.57215564       0.50000000 </v>
   <v>       0.71045212       0.57215564       0.50000000 </v>
   <v>       0.85461695       0.57181625       0.50000000 </v>
   <v>       0.99707234       0.71370518       0.50000000 </v>
   <v>       0.14255519       0.71368182       0.50000000 </v>
   <v>       0.28806142       0.71370518       0.50000000 </v>
   <v>       0.43464191       0.71382540       0.50000000 </v>
   <v>       0.58510826       0.71626937       0.50000000 </v>
   <v>       0.70258968       0.71626937       0.50000000 </v>
   <v>       0.85061206       0.71382540       0.50000000 </v>
   <v>       0.99777175       0.85613493       0.50000000 </v>
   <v>       0.14160898       0.85591288       0.50000000 </v>
   <v>       0.28573247       0.85591288       0.50000000 </v>
   <v>       0.42979175       0.85613493       0.50000000 </v>
   <v>       0.57342541       0.85758690       0.50000000 </v>
   <v>       0.71640633       0.86138410       0.50000000 </v>
   <v>       0.85559006       0.85758690       0.50000000 </v>
   <v>       0.04754270       0.09547788       0.50000000 </v>
   <v>       0.18957833       0.09405657       0.50000000 </v>
   <v>       0.33254182       0.09365506       0.50000000 </v>
   <v>       0.47590681       0.09405657       0.50000000 </v>
   <v>       0.61936376       0.09547788       0.50000000 </v>
   <v>       0.76280004       0.09719274       0.50000000 </v>
   <v>       0.90582126       0.09719274       0.50000000 </v>
   <v>       0.04854983       0.23934281       0.50000000 </v>
   <v>       0.19048138       0.23782962       0.50000000 </v>
   <v>       0.33234878       0.23634667       0.50000000 </v>
   <v>       0.47542646       0.23634667       0.50000000 </v>
   <v>       0.61877681       0.23782962       0.50000000 </v>
   <v>       0.76222155       0.23934281       0.50000000 </v>
   <v>       0.90562797       0.23982737       0.50000000 </v>
   <v>       0.04871288       0.38232824       0.50000000 </v>
   <v>       0.19188940       0.38184213       0.50000000 </v>
   <v>       0.33352206       0.38013969       0.50000000 </v>
   <v>       0.47472270       0.37801683       0.50000000 </v>
   <v>       0.61804620       0.38013969       0.50000000 </v>
   <v>       0.76138130       0.38184213       0.50000000 </v>
   <v>       0.90504393       0.38232824       0.50000000 </v>
   <v>       0.04810654       0.52478452       0.50000000 </v>
   <v>       0.19263929       0.52476864       0.50000000 </v>
   <v>       0.33696521       0.52455433       0.50000000 </v>
   <v>       0.47833704       0.52146721       0.50000000 </v>
   <v>       0.61455874       0.52146721       0.50000000 </v>
   <v>       0.75901769       0.52455433       0.50000000 </v>
   <v>       0.90355792       0.52476864       0.50000000 </v>
   <v>       0.04642473       0.66685228       0.50000000 </v>
   <v>       0.19185612       0.66685228       0.50000000 </v>
   <v>       0.33777931       0.66688794       0.50000000 </v>
   <v>       0.48615700       0.66710760       0.50000000 </v>
   <v>       0.75237918       0.66710760       0.50000000 </v>
   <v>       0.90053720       0.66688794       0.50000000 </v>
   <v>       0.04582562       0.80879365       0.50000000 </v>
   <v>       0.19009580       0.80876303       0.50000000 </v>
   <v>       0.33439660       0.80879365       0.50000000 </v>
   <v>       0.47844872       0.80897069       0.50000000 </v>
   <v>       0.62209487       0.81129474       0.50000000 </v>
   <v>       0.76062845       0.81129474       0.50000000 </v>
   <v>       0.90195054       0.80897069       0.50000000 </v>
   <v>       0.04629157       0.95154386       0.50000000 </v>
   <v>       0.18948291       0.95113037       0.50000000 </v>
   <v>       0.33307603       0.95113037       0.50000000 </v>
   <v>       0.47668087       0.95154386       0.50000000 </v>
   <v>       0.62015751       0.95313740       0.50000000 </v>
   <v>       0.76355772       0.95568687       0.50000000 </v>
   <v>       0.90440847       0.95313740       0.50000000 </v>
   <v>       0.56830873       0.56518888       0.50000000 </v>
  </varray>
 </structure>
 <calculation>
  <scstep>
   <time name="dav">    2.36    2.39</time>
   <time name="total">    2.73    2.84</time>
   <energy>
    <i name="alphaZ">    156.50993408 </i>
    <i name="ewald">  58206.83206003 </i>
    <i name="hartreedc"> -70374.24338470 </i>
    <i name="XCdc">   1302.10908388 </i>
    <i name="pawpsdc">  12033.28670802 </i>
    <i name="pawaedc"> -12049.96799276 </i>
    <i name="eentropy">     -0.00000000 </i>
    <i name="bandstr">   -904.59301923 </i>
    <i name="atom">  16260.93880140 </i>
    <i name="e_fr_energy">   4630.87219072 </i>
    <i name="e_wo_entrp">   4630.87219072 </i>
    <i name="e_0_energy">   4630.87219072 </i>
   </energy>
  </scstep>
  <scstep>
   <time name="dav">    3.07    5.50</time>
   <time name="total">    3.07    5.50</time>
   <energy>
    <i name="e_fr_energy">    216.62760065 </i>
    <i name="e_wo_entrp">    216.62760065 </i>
    <i name="e_0_energy">    216.62760065 </i>
   </energy>
  </scstep>
  <scstep>
   <time name="dav">    2.56    2.88</time>
   <time name="total">    2.56    2.88</time>
   <energy>
    <i name="e_fr_energy">   -867.48710660 </i>
    <i name="e_wo_entrp">   -867.48710660 </i>
    <i name="e_0_energy">   -867.48710660 </i>
   </energy>
  </scstep>
  <scstep>
   <time name="dav">    2.47    3.02</time>
   <time name="total">    2.47    3.02</time>
   <energy>
    <i name="e_fr_energy">   -934.19537894 </i>
    <i name="e_wo_entrp">   -934.19537894 </i>
    <i name="e_0_energy">   -934.19537894 </i>
   </energy>
  </scstep>
  <scstep>
   <time name="dav">    2.55    3.19</time>
   <time name="total">    2.99    3.64</time>
   <energy>
    <i name="e_fr_energy">   -935.77607831 </i>
    <i name="e_wo_entrp">   -935.77607831 </i>
    <i name="e_0_energy">   -935.77607831 </i>
   </energy>
  </scstep>
  <scstep>
   <time name="dav">    2.70    2.72</time>
   <time name="total">    3.58    3.63</time>
   <energy>
    <i name="e_fr_energy">   -858.73530864 </i>
    <i name="e_wo_entrp">   -858.73530864 </i>
    <i name="e_0_energy">   -858.73530864 </i>
   </energy>
  </scstep>
  <scstep>
   <time name="dav">    2.45    2.48</time>
   <time name="total">    3.26    3.31</time>
   <energy>
    <i name="e_fr_energy">   -850.19479812 </i>
    <i name="e_wo_entrp">   -850.19479812 </i>
    <i name="e_0_energy">   -850.19479812 </i>
   </energy>
  </scstep>
  <scstep>
   <time name="dav">    2.28    2.30</time>
   <time name="total">    3.08    3.12</time>
   <energy>
    <i name="e_fr_energy">   -845.92777750 </i>
    <i name="e_wo_entrp">   -845.92777698 </i>
    <i name="e_0_energy">   -845.92777724 </i>
   </energy>
  </scstep>
  <scstep>
   <time name="dav">    2.31    2.32</time>
   <time name="total">    3.11    3.14</time>
   <energy>
    <i name="e_fr_energy">   -845.80220625 </i>
    <i name="e_wo_entrp">   -845.80220625 </i>
    <i name="e_0_energy">   -845.80220625 </i>
   </energy>
  </scstep>
  <scstep>
   <time name="dav">    2.37    2.40</time>
   <time name="total">    3.18    3.22</time>
   <energy>
    <i name="e_fr_energy">   -845.64070590 </i>
    <i name="e_wo_entrp">   -845.64070590 </i>
    <i name="e_0_energy">   -845.64070590 </i>
   </energy>
  </scstep>
  <scstep>
   <time name="dav">    2.25    2.28</time>
   <time name="total">    3.06    3.09</time>
   <energy>
    <i name="e_fr_energy">   -845.58816672 </i>
    <i name="e_wo_entrp">   -845.58816672 </i>
    <i name="e_0_energy">   -845.58816672 </i>
   </energy>
  </scstep>
  <scstep>
   <time name="dav">    2.25    2.27</time>
   <time name="total">    3.06    3.09</time>
   <energy>
    <i name="e_fr_energy">   -845.57541347 </i>
    <i name="e_wo_entrp">   -845.57541347 </i>
    <i name="e_0_energy">   -845.57541347 </i>
   </energy>
  </scstep>
  <scstep>
   <time name="dav">    2.24    2.26</time>
   <time name="total">    3.05    3.08</time>
   <energy>
    <i name="e_fr_energy">   -845.58592644 </i>
    <i name="e_wo_entrp">   -845.58592644 </i>
    <i name="e_0_energy">   -845.58592644 </i>
   </energy>
  </scstep>
  <scstep>
   <time name="dav">    2.23    2.25</time>
   <time name="total">    3.03    3.07</time>
   <energy>
    <i name="e_fr_energy">   -845.59567498 </i>
    <i name="e_wo_entrp">   -845.59567498 </i>
    <i name="e_0_energy">   -845.59567498 </i>
   </energy>
  </scstep>
  <scstep>
   <time name="dav">    2.18    2.20</time>
   <time name="total">    2.99    3.02</time>
   <energy>
    <i name="e_fr_energy">   -845.62677835 </i>
    <i name="e_wo_entrp">   -845.62677835 </i>
    <i name="e_0_energy">   -845.62677835 </i>
   </energy>
  </scstep>
  <scstep>
   <time name="dav">    2.22    2.24</time>
   <time name="total">    3.02    3.06</time>
   <energy>
    <i name="e_fr_energy">   -845.64322479 </i>
    <i name="e_wo_entrp">   -845.64322479 </i>
    <i name="e_0_energy">   -845.64322479 </i>
   </energy>
  </scstep>
  <scstep>
   <time name="dav">    2.25    2.27</time>
   <time name="total">    3.07    3.09</time>
   <energy>
    <i name="e_fr_energy">   -845.64962295 </i>
    <i name="e_wo_entrp">   -845.64962295 </i>
    <i name="e_0_energy">   -845.64962295 </i>
   </energy>
  </scstep>
  <scstep>
   <time name="dav">    2.21    2.23</time>
   <time name="total">    3.02    3.06</time>
   <energy>
    <i name="e_fr_energy">   -845.65273912 </i>
    <i name="e_wo_entrp">   -845.65273912 </i>
    <i name="e_0_energy">   -845.65273912 </i>
   </energy>
  </scstep>
  <scstep>
   <time name="dav">    2.31    2.33</time>
   <time name="total">    3.12    3.16</time>
   <energy>
    <i name="e_fr_energy">   -845.65374186 </i>
    <i name="e_wo_entrp">   -845.65374186 </i>
    <i name="e_0_energy">   -845.65374186 </i>
   </energy>
  </scstep>
  <scstep>
   <time name="dav">    2.23    2.25</time>
   <time name="total">    3.04    3.08</time>
   <energy>
    <i name="e_fr_energy">   -845.65415619 </i>
    <i name="e_wo_entrp">   -845.65415619 </i>
    <i name="e_0_energy">   -845.65415619 </i>
   </energy>
  </scstep>
  <scstep>
   <time name="dav">    2.22    2.24</time>
   <time name="total">    3.03    3.06</time>
   <energy>
    <i name="e_fr_energy">   -845.65435474 </i>
    <i name="e_wo_entrp">   -845.65435474 </i>
    <i name="e_0_energy">   -845.65435474 </i>
   </energy>
  </scstep>
  <scstep>
   <time name="dav">    2.21    2.22</time>
   <time name="total">    3.01    3.05</time>
   <energy>
    <i name="e_fr_energy">   -845.65446426 </i>
    <i name="e_wo_entrp">   -845.65446426 </i>
    <i name="e_0_energy">   -845.65446426 </i>
   </energy>
  </scstep>
  <scstep>
   <time name="dav">    2.25    2.27</time>
   <time name="total">    3.06    3.10</time>
   <energy>
    <i name="e_fr_energy">   -845.65454151 </i>
    <i name="e_wo_entrp">   -845.65454151 </i>
    <i name="e_0_energy">   -845.65454151 </i>
   </energy>
  </scstep>
  <scstep>
   <time name="dav">    2.25    2.27</time>
   <time name="total">    3.06    3.10</time>
   <energy>
    <i name="e_fr_energy">   -845.65458079 </i>
    <i name="e_wo_entrp">   -845.65458079 </i>
    <i name="e_0_energy">   -845.65458079 </i>
   </energy>
  </scstep>
  <scstep>
   <time name="dav">    2.26    2.28</time>
   <time name="total">    3.07    3.10</time>
   <energy>
    <i name="e_fr_energy">   -845.65459852 </i>
    <i name="e_wo_entrp">   -845.65459852 </i>
    <i name="e_0_energy">   -845.65459852 </i>
   </energy>
  </scstep>
  <scstep>
   <time name="dav">    2.24    2.26</time>
   <time name="total">    3.05    3.09</time>
   <energy>
    <i name="e_fr_energy">   -845.65461453 </i>
    <i name="e_wo_entrp">   -845.65461453 </i>
    <i name="e_0_energy">   -845.65461453 </i>
   </energy>
  </scstep>
  <scstep>
   <time name="dav">    2.21    2.23</time>
   <time name="total">    3.02    3.06</time>
   <energy>
    <i name="e_fr_energy">   -845.65461757 </i>
    <i name="e_wo_entrp">   -845.65461757 </i>
    <i name="e_0_energy">   -845.65461757 </i>
   </energy>
  </scstep>
  <scstep>
   <time name="dav">    1.96    1.98</time>
   <time name="total">    2.78    2.81</time>
   <energy>
    <i name="e_fr_energy">   -845.65461881 </i>
    <i name="e_wo_entrp">   -845.65461881 </i>
    <i name="e_0_energy">   -845.65461881 </i>
   </energy>
  </scstep>
  <scstep>
   <time name="dav">    1.80    1.81</time>
   <time name="total">    2.62    2.64</time>
   <energy>
    <i name="e_fr_energy">   -845.65461912 </i>
    <i name="e_wo_entrp">   -845.65461912 </i>
    <i name="e_0_energy">   -845.65461912 </i>
   </energy>
  </scstep>
  <scstep>
   <time name="dav">    1.67    1.68</time>
   <time name="total">    2.49    2.52</time>
   <energy>
    <i name="e_fr_energy">   -845.65461924 </i>
    <i name="e_wo_entrp">   -845.65461924 </i>
    <i name="e_0_energy">   -845.65461924 </i>
   </energy>
  </scstep>
  <scstep>
   <time name="dav">    1.67    1.68</time>
   <time name="total">    2.49    2.52</time>
   <energy>
    <i name="e_fr_energy">   -845.65461930 </i>
    <i name="e_wo_entrp">   -845.65461930 </i>
    <i name="e_0_energy">   -845.65461930 </i>
   </energy>
  </scstep>
  <scstep>
   <time name="dav">    1.70    1.71</time>
   <time name="total">    2.52    2.55</time>
   <energy>
    <i name="e_fr_energy">   -845.65461933 </i>
    <i name="e_wo_entrp">   -845.65461933 </i>
    <i name="e_0_energy">   -845.65461933 </i>
   </energy>
  </scstep>
  <scstep>
   <time name="dav">    1.80    1.82</time>
   <time name="total">    2.18    2.20</time>
   <energy>
    <i name="alphaZ">    156.50993408 </i>
    <i name="ewald">  58206.83206003 </i>
    <i name="hartreedc"> -72314.30308770 </i>
    <i name="XCdc">   1369.72408005 </i>
    <i name="pawpsdc">  44019.01692734 </i>
    <i name="pawaedc"> -44054.35877992 </i>
    <i name="eentropy">     -0.00000000 </i>
    <i name="bandstr">  -4490.01455461 </i>
    <i name="atom">  16260.93880140 </i>
    <i name="e_fr_energy">   -845.65461933 </i>
    <i name="e_wo_entrp">   -845.65461933 </i>
    <i name="e_0_energy">   -845.65461933 </i>
   </energy>
  </scstep>
  <structure>
   <crystal>
    <varray name="basis" >
     <v>      17.59966831       0.00000000       0.00000000 </v>
     <v>      -8.79983416      15.24175986       0.00000000 </v>
     <v>       0.00000000       0.00000000      19.92151445 </v>
    </varray>
    <i name="volume">   5343.94461817 </i>
    <varray name="rec_basis" >
     <v>       0.05681925       0.03280461       0.00000000 </v>
     <v>       0.00000000       0.06560922       0.00000000 </v>
     <v>       0.00000000       0.00000000       0.05019699 </v>
    </varray>
   </crystal>
   <varray name="positions" >
    <v>       0.99943010       0.00005992       0.50000000 </v>
    <v>       0.14164706       0.99871895       0.50000000 </v>
    <v>       0.28492260       0.99841663       0.50000000 </v>
    <v>       0.42850047       0.99871895       0.50000000 </v>
    <v>       0.57205839       0.00005992       0.50000000 </v>
    <v>       0.71530655       0.00214292       0.50000000 </v>
    <v>       0.85826494       0.00214292       0.50000000 </v>
    <v>       0.00080792       0.14408264       0.50000000 </v>
    <v>       0.14259355       0.14244783       0.50000000 </v>
    <v>       0.28470221       0.14112972       0.50000000 </v>
    <v>       0.42785608       0.14112972       0.50000000 </v>
    <v>       0.57128286       0.14244783       0.50000000 </v>
    <v>       0.71470329       0.14408264       0.50000000 </v>
    <v>       0.85805263       0.14467669       0.50000000 </v>
    <v>       0.00095476       0.28713011       0.50000000 </v>
    <v>       0.14372552       0.28645370       0.50000000 </v>
    <v>       0.28540977       0.28469374       0.50000000 </v>
    <v>       0.42724431       0.28306005       0.50000000 </v>
    <v>       0.57071254       0.28469374       0.50000000 </v>
    <v>       0.71415674       0.28645370       0.50000000 </v>
    <v>       0.85760392       0.28713011       0.50000000 </v>
    <v>       0.00054479       0.42966101       0.50000000 </v>
    <v>       0.14422690       0.42957551       0.50000000 </v>
    <v>       0.28730213       0.42861186       0.50000000 </v>
    <v>       0.42797654       0.42569726       0.50000000 </v>
    <v>       0.56914930       0.42569726       0.50000000 </v>
    <v>       0.71330650       0.42918005       0.50000000 </v>
    <v>       0.85677719       0.42957551       0.50000000 </v>
    <v>       0.99928255       0.57181462       0.50000000 </v>
    <v>       0.14396064       0.57181462       0.50000000 </v>
    <v>       0.28862787       0.57181625       0.50000000 </v>
    <v>       0.43313209       0.57215564       0.50000000 </v>
    <v>       0.71045212       0.57215564       0.50000000 </v>
    <v>       0.85461695       0.57181625       0.50000000 </v>
    <v>       0.99707234       0.71370518       0.50000000 </v>
    <v>       0.14255519       0.71368182       0.50000000 </v>
    <v>       0.28806142       0.71370518       0.50000000 </v>
    <v>       0.43464191       0.71382540       0.50000000 </v>
    <v>       0.58510826       0.71626937       0.50000000 </v>
    <v>       0.70258968       0.71626937       0.50000000 </v>
    <v>       0.85061206       0.71382540       0.50000000 </v>
    <v>       0.99777175       0.85613493       0.50000000 </v>
    <v>       0.14160898       0.85591288       0.50000000 </v>
    <v>       0.28573247       0.85591288       0.50000000 </v>
    <v>       0.42979175       0.85613493       0.50000000 </v>
    <v>       0.57342541       0.85758690       0.50000000 </v>
    <v>       0.71640633       0.86138410       0.50000000 </v>
    <v>       0.85559006       0.85758690       0.50000000 </v>
    <v>       0.04754270       0.09547788       0.50000000 </v>
    <v>       0.18957833       0.09405657       0.50000000 </v>
    <v>       0.33254182       0.09365506       0.50000000 </v>
    <v>       0.47590681       0.09405657       0.50000000 </v>
    <v>       0.61936376       0.09547788       0.50000000 </v>
    <v>       0.76280004       0.09719274       0.50000000 </v>
    <v>       0.90582126       0.09719274       0.50000000 </v>
    <v>       0.04854983       0.23934281       0.50000000 </v>
    <v>       0.19048138       0.23782962       0.50000000 </v>
    <v>       0.33234878       0.23634667       0.50000000 </v>
    <v>       0.47542646       0.23634667       0.50000000 </v>
    <v>       0.61877681       0.23782962       0.50000000 </v>
    <v>       0.76222155       0.23934281       0.50000000 </v>
    <v>       0.90562797       0.23982737       0.50000000 </v>
    <v>       0.04871288       0.38232824       0.50000000 </v>
    <v>       0.19188940       0.38184213       0.50000000 </v>
    <v>       0.33352206       0.38013969       0.50000000 </v>
    <v>       0.47472270       0.37801683       0.50000000 </v>
    <v>       0.61804620       0.38013969       0.50000000 </v>
    <v>       0.76138130       0.38184213       0.50000000 </v>
    <v>       0.90504393       0.38232824       0.50000000 </v>
    <v>       0.04810654       0.52478452       0.50000000 </v>
    <v>       0.19263929       0.52476864       0.50000000 </v>
    <v>       0.33696521       0.52455433       0.50000000 </v>
    <v>       0.47833704       0.52146721       0.50000000 </v>
    <v>       0.61455874       0.52146721       0.50000000 </v>
    <v>       0.75901769       0.52455433       0.50000000 </v>
    <v>       0.90355792       0.52476864       0.50000000 </v>
    <v>       0.04642473       0.66685228       0.50000000 </v>
    <v>       0.19185612       0.66685228       0.50000000 </v>
    <v>       0.33777931       0.66688794       0.50000000 </v>
    <v>       0.48615700       0.66710760       0.50000000 </v>
    <v>       0.75237918       0.66710760       0.50000000 </v>
    <v>       0.90053720       0.66688794       0.50000000 </v>
    <v>       0.04582562       0.80879365       0.50000000 </v>
    <v>       0.19009580       0.80876303       0.50000000 </v>
    <v>       0.33439660       0.80879365       0.50000000 </v>
    <v>       0.47844872       0.80897069       0.50000000 </v>
    <v>       0.62209487       0.81129474       0.50000000 </v>
    <v>       0.76062845       0.81129474       0.50000000 </v>
    <v>       0.90195054       0.80897069       0.50000000 </v>
    <v>       0.04629157       0.95154386       0.50000000 </v>
    <v>       0.18948291       0.95113037       0.50000000 </v>
    <v>       0.33307603       0.95113037       0.50000000 </v>
    <v>       0.47668087       0.95154386       0.50000000 </v>
    <v>       0.62015751       0.95313740       0.50000000 </v>
    <v>       0.76355772       0.95568687       0.50000000 </v>
    <v>       0.90440847       0.95313740       0.50000000 </v>
    <v>       0.56830873       0.56518888       0.50000000 </v>
   </varray>
  </structure>
  <varray name="forces" >
   <v>      -0.04036671      -0.02830132       0.00000000 </v>
   <v>      -0.02175620      -0.01323197       0.00000000 </v>
   <v>       0.00112759      -0.01587033       0.00000000 </v>
   <v>       0.02317310      -0.01192074       0.00000000 </v>
   <v>       0.04001044      -0.02816048       0.00000000 </v>
   <v>      -0.03447448      -0.05082068      -0.00000000 </v>
   <v>       0.03224100      -0.05036084       0.00000000 </v>
   <v>      -0.00896612      -0.02589673       0.00000000 </v>
   <v>      -0.02781279      -0.03198285       0.00000000 </v>
   <v>      -0.00718643      -0.03996802       0.00000000 </v>
   <v>       0.00958886      -0.03640623       0.00000000 </v>
   <v>       0.02848685      -0.02660306       0.00000000 </v>
   <v>       0.00628917      -0.02739642       0.00000000 </v>
   <v>      -0.00066374      -0.04140662       0.00000000 </v>
   <v>      -0.00911363      -0.02833501       0.00000000 </v>
   <v>      -0.02038180      -0.04469101       0.00000000 </v>
   <v>      -0.01792330      -0.04527342       0.00000000 </v>
   <v>       0.00577428      -0.09759952       0.00000000 </v>
   <v>       0.03381400      -0.00243606      -0.00000000 </v>
   <v>      -0.00391163      -0.04409813      -0.00000000 </v>
   <v>       0.00877040      -0.02872368       0.00000000 </v>
   <v>       0.00059702       0.01014083       0.00000000 </v>
   <v>      -0.01142844       0.01995669       0.00000000 </v>
   <v>      -0.19637402       0.28649639      -0.00000000 </v>
   <v>      -0.08024321      -0.17338847       0.00000000 </v>
   <v>       0.11778589      -0.19426635       0.00000000 </v>
   <v>      -0.05525300      -0.13698073       0.00000000 </v>
   <v>       0.02655725      -0.00019524      -0.00000000 </v>
   <v>       0.01873028       0.02862187      -0.00000000 </v>
   <v>      -0.01131840       0.02642461       0.00000000 </v>
   <v>      -0.05699904       0.09480121      -0.00000000 </v>
   <v>       0.01055872       0.38629266       0.00000000 </v>
   <v>      -0.04933515       0.39806807       0.00000000 </v>
   <v>       0.08686268       0.12845207       0.00000000 </v>
   <v>      -0.00721610       0.02140877       0.00000000 </v>
   <v>       0.00293260       0.02592272       0.00000000 </v>
   <v>       0.01363575       0.01872066      -0.00000000 </v>
   <v>       0.08605561       0.03694768       0.00000000 </v>
   <v>       1.35813401       1.24747594      -0.00000000 </v>
   <v>      -1.36523837       1.25117944       0.00000000 </v>
   <v>      -0.08633790       0.04269579       0.00000000 </v>
   <v>      -0.04651726      -0.00939559      -0.00000000 </v>
   <v>      -0.01154691      -0.00651286      -0.00000000 </v>
   <v>       0.01475952      -0.00679340       0.00000000 </v>
   <v>       0.04798063      -0.01068264       0.00000000 </v>
   <v>       0.14990111       0.03350375       0.00000000 </v>
   <v>      -0.00261293      -0.25385538       0.00000000 </v>
   <v>      -0.15192014       0.03529525      -0.00000000 </v>
   <v>       0.02963653       0.03447976      -0.00000000 </v>
   <v>       0.01095241       0.02780196      -0.00000000 </v>
   <v>      -0.00189326       0.03084909      -0.00000000 </v>
   <v>      -0.01257280       0.02551184      -0.00000000 </v>
   <v>      -0.02745201       0.03362353      -0.00000000 </v>
   <v>      -0.01241324       0.02800036       0.00000000 </v>
   <v>       0.01380761       0.02722645       0.00000000 </v>
   <v>       0.01829300       0.03000733       0.00000000 </v>
   <v>       0.00261652       0.01245376      -0.00000000 </v>
   <v>       0.00897080       0.04297944       0.00000000 </v>
   <v>      -0.02031788       0.03838940       0.00000000 </v>
   <v>       0.00640991       0.00423882       0.00000000 </v>
   <v>      -0.01715219       0.03579826      -0.00000000 </v>
   <v>       0.00014417       0.03091092      -0.00000000 </v>
   <v>       0.01469006       0.02189817      -0.00000000 </v>
   <v>       0.09044864      -0.00985082       0.00000000 </v>
   <v>       0.12496506      -0.33414400       0.00000000 </v>
   <v>      -0.01474013       0.11014040      -0.00000000 </v>
   <v>       0.01819196      -0.20087704       0.00000000 </v>
   <v>      -0.04953554       0.05909057      -0.00000000 </v>
   <v>      -0.01182999       0.02529439       0.00000000 </v>
   <v>      -0.00331768       0.00768094       0.00000000 </v>
   <v>       0.01328267      -0.01162850       0.00000000 </v>
   <v>       0.22883225      -0.06472919       0.00000000 </v>
   <v>       1.03061699      -1.57615683       0.00000000 </v>
   <v>      -1.02286584      -1.56683604       0.00000000 </v>
   <v>      -0.19130529       0.11138065       0.00000000 </v>
   <v>      -0.02725224      -0.00764383      -0.00000000 </v>
   <v>       0.00792993      -0.03272468      -0.00000000 </v>
   <v>      -0.01369581      -0.03117269       0.00000000 </v>
   <v>      -0.06120604      -0.05721433       0.00000000 </v>
   <v>      -0.26037612       0.01937354       0.00000000 </v>
   <v>       0.27110197       0.00826032       0.00000000 </v>
   <v>       0.05825647      -0.06657369       0.00000000 </v>
   <v>       0.03570148      -0.01180898      -0.00000000 </v>
   <v>      -0.00169743      -0.00920681      -0.00000000 </v>
   <v>      -0.03825981      -0.00963740       0.00000000 </v>
   <v>      -0.08529464      -0.00884855      -0.00000000 </v>
   <v>      -0.88364119       0.24732911      -0.00000000 </v>
   <v>       0.88792014       0.24419724       0.00000000 </v>
   <v>       0.08574385      -0.01289292      -0.00000000 </v>
   <v>       0.03238927       0.01900418      -0.00000000 </v>
   <v>       0.00917240      -0.00109325      -0.00000000 </v>
   <v>      -0.01148201      -0.00104708       0.00000000 </v>
   <v>      -0.03278862       0.01974758       0.00000000 </v>
   <v>      -0.11036587       0.12134234      -0.00000000 </v>
   <v>       0.00115560       0.01757968       0.00000000 </v>
   <v>       0.11197443       0.12015409       0.00000000 </v>
   <v>      -0.00061752      -0.12150811       0.00000000 </v>
  </varray>
  <varray name="stress" >
   <v>     -10.57583146      -0.01884896       0.00000000 </v>
   <v>      -0.01884896       3.01179531       0.00000000 </v>
   <v>       0.00000000       0.00000000      -0.42556581 </v>
  </varray>
  <energy>
   <i name="e_fr_energy">   -845.65461933 </i>
   <i name="e_wo_entrp">   -845.65461933 </i>
   <i name="e_0_energy">     -0.00000000 </i>
  </energy>
  <time name="totalsc">  104.40  109.52</time>
  <eigenvalues>
   <array>
    <dimension dim="1">band</dimension>
    <dimension dim="2">kpoint</dimension>
    <dimension dim="3">spin</dimension>
    <field>eigene</field>
    <field>occ</field>
    <set>
     <set comment="spin 1">
      <set comment="kpoint 1">
       <r>  -22.5436    1.0000 </r>
       <r>  -22.0206    1.0000 </r>
       <r>  -21.7757    1.0000 </r>
       <r>  -21.7448    1.0000 </r>
       <r>  -21.6960    1.0000 </r>
       <r>  -21.6520    1.0000 </r>
       <r>  -21.6187    1.0000 </r>
       <r>  -21.2364    1.0000 </r>
       <r>  -21.0709    1.0000 </r>
       <r>  -21.0046    1.0000 </r>
       <r>  -20.9695    1.0000 </r>
       <r>  -20.9265    1.0000 </r>
       <r>  -20.8780    1.0000 </r>
       <r>  -20.7446    1.0000 </r>
       <r>  -20.7027    1.0000 </r>
       <r>  -20.6613    1.0000 </r>
       <r>  -20.5950    1.0000 </r>
       <r>  -20.5691    1.0000 </r>
       <r>  -20.4277    1.0000 </r>
       <r>  -19.9801    1.0000 </r>
       <r>  -19.9247    1.0000 </r>
       <r>  -19.8097    1.0000 </r>
       <r>  -19.7650    1.0000 </r>
       <r>  -19.7381    1.0000 </r>
       <r>  -19.7361    1.0000 </r>
       <r>  -19.7063    1.0000 </r>
       <r>  -19.6982    1.0000 </r>
       <r>  -19.6438    1.0000 </r>
       <r>  -19.6378    1.0000 </r>
       <r>  -19.6275    1.0000 </r>
       <r>  -19.4945    1.0000 </r>
       <r>  -19.4074    1.0000 </r>
       <r>  -19.3637    1.0000 </r>
       <r>  -19.3549    1.0000 </r>
       <r>  -19.2884    1.0000 </r>
       <r>  -19.2398    1.0000 </r>
       <r>  -19.1041    1.0000 </r>
       <r>  -19.0009    1.0000 </r>
       <r>  -18.9356    1.0000 </r>
       <r>  -18.8766    1.0000 </r>
       <r>  -18.8527    1.0000 </r>
       <r>  -18.8357    1.0000 </r>
       <r>  -18.7646    1.0000 </r>
       <r>  -18.7515    1.0000 </r>
       <r>  -18.7268    1.0000 </r>
       <r>  -18.7111    1.0000 </r>
       <r>  -18.6931    1.0000 </r>
       <r>  -18.4427    1.0000 </r>
       <r>  -14.1411    1.0000 </r>
       <r>  -13.1849    1.0000 </r>
       <r>  -13.1629    1.0000 </r>
       <r>  -13.1114    1.0000 </r>
       <r>  -13.1061    1.0000 </r>
       <r>  -13.0784    1.0000 </r>
       <r>  -13.0153    1.0000 </r>
       <r>  -12.9581    1.0000 </r>
       <r>  -12.9505    1.0000 </r>
       <r>  -12.9346    1.0000 </r>
       <r>  -12.8037    1.0000 </r>
       <r>  -12.7695    1.0000 </r>
       <r>  -12.6011    1.0000 </r>
       <r>  -12.5059    1.0000 </r>
       <r>  -12.4862    1.0000 </r>
       <r>  -12.3776    1.0000 </r>
       <r>  -12.3069    1.0000 </r>
       <r>  -12.2951    1.0000 </r>
       <r>  -12.1749    1.0000 </r>
       <r>  -11.9026    1.0000 </r>
       <r>  -11.8861    1.0000 </r>
       <r>  -11.7703    1.0000 </r>
       <r>  -11.7640    1.0000 </r>
       <r>  -11.7515    1.0000 </r>
       <r>  -11.7406    1.0000 </r>
       <r>  -11.6942    1.0000 </r>
       <r>  -11.6532    1.0000 </r>
       <r>  -11.6309    1.0000 </r>
       <r>  -11.5415    1.0000 </r>
       <r>  -11.4208    1.0000 </r>
       <r>  -11.2014    1.0000 </r>
       <r>  -11.1239    1.0000 </r>
       <r>  -11.0844    1.0000 </r>
       <r>  -11.0579    1.0000 </r>
       <r>  -10.9663    1.0000 </r>
       <r>  -10.9101    1.0000 </r>
       <r>  -10.6835    1.0000 </r>
       <r>  -10.4640    1.0000 </r>
       <r>  -10.4331    1.0000 </r>
       <r>  -10.3473    1.0000 </r>
       <r>  -10.2555    1.0000 </r>
       <r>  -10.2072    1.0000 </r>
       <r>   -9.8893    1.0000 </r>
       <r>   -9.7690    1.0000 </r>
       <r>   -9.7674    1.0000 </r>
       <r>   -9.7267    1.0000 </r>
       <r>   -9.6779    1.0000 </r>
       <r>   -9.5866    1.0000 </r>
       <r>   -9.5426    1.0000 </r>
       <r>   -9.4962    1.0000 </r>
       <r>   -9.4648    1.0000 </r>
       <r>   -9.3545    1.0000 </r>
       <r>   -9.3476    1.0000 </r>
       <r>   -9.2884    1.0000 </r>
       <r>   -9.2646    1.0000 </r>
       <r>   -9.2555    1.0000 </r>
       <r>   -9.2517    1.0000 </r>
       <r>   -9.2402    1.0000 </r>
       <r>   -9.2252    1.0000 </r>
       <r>   -9.2216    1.0000 </r>
       <r>   -9.2079    1.0000 </r>
       <r>   -9.2022    1.0000 </r>
       <r>   -9.1991    1.0000 </r>
       <r>   -9.1980    1.0000 </r>
       <r>   -9.1542    1.0000 </r>
       <r>   -9.1342    1.0000 </r>
       <r>   -9.1093    1.0000 </r>
       <r>   -9.1089    1.0000 </r>
       <r>   -9.0995    1.0000 </r>
       <r>   -9.0408    1.0000 </r>
       <r>   -8.9930    1.0000 </r>
       <r>   -8.8448    1.0000 </r>
       <r>   -8.7971    1.0000 </r>
       <r>   -8.6539    1.0000 </r>
       <r>   -8.5094    1.0000 </r>
       <r>   -8.4798    1.0000 </r>
       <r>   -8.4413    1.0000 </r>
       <r>   -8.3276    1.0000 </r>
       <r>   -8.2244    1.0000 </r>
       <r>   -8.1999    1.0000 </r>
       <r>   -8.1974    1.0000 </r>
       <r>   -8.1709    1.0000 </r>
       <r>   -8.1499    1.0000 </r>
       <r>   -8.1225    1.0000 </r>
       <r>   -8.0400    1.0000 </r>
       <r>   -7.9745    1.0000 </r>
       <r>   -7.9482    1.0000 </r>
       <r>   -7.8728    1.0000 </r>
       <r>   -7.8474    1.0000 </r>
       <r>   -7.8466    1.0000 </r>
       <r>   -7.8020    1.0000 </r>
       <r>   -7.8006    1.0000 </r>
       <r>   -7.7984    1.0000 </r>
       <r>   -7.7377    1.0000 </r>
       <r>   -7.7319    1.0000 </r>
       <r>   -7.7091    1.0000 </r>
       <r>   -7.6788    1.0000 </r>
       <r>   -7.6736    1.0000 </r>
       <r>   -7.6633    1.0000 </r>
       <r>   -7.6380    1.0000 </r>
       <r>   -7.6305    1.0000 </r>
       <r>   -7.4414    1.0000 </r>
       <r>   -7.4414    1.0000 </r>
       <r>   -7.4288    1.0000 </r>
       <r>   -7.3848    1.0000 </r>
       <r>   -7.3576    1.0000 </r>
       <r>   -7.2719    1.0000 </r>
       <r>   -6.8309    1.0000 </r>
       <r>   -6.7591    1.0000 </r>
       <r>   -6.6200    1.0000 </r>
       <r>   -6.6066    1.0000 </r>
       <r>   -6.5416    1.0000 </r>
       <r>   -6.5392    1.0000 </r>
       <r>   -6.5034    1.0000 </r>
       <r>   -6.4922    1.0000 </r>
       <r>   -6.4585    1.0000 </r>
       <r>   -6.4561    1.0000 </r>
       <r>   -6.4428    1.0000 </r>
       <r>   -6.4398    1.0000 </r>
       <r>   -6.4094    1.0000 </r>
       <r>   -6.4041    1.0000 </r>
       <r>   -6.3592    1.0000 </r>
       <r>   -6.3461    1.0000 </r>
       <r>   -6.3139    1.0000 </r>
       <r>   -6.1119    1.0000 </r>
       <r>   -5.9712    1.0000 </r>
       <r>   -5.9233    1.0000 </r>
       <r>   -5.8870    1.0000 </r>
       <r>   -5.8797    1.0000 </r>
       <r>   -5.8606    1.0000 </r>
       <r>   -5.7798    1.0000 </r>
       <r>   -5.7790    1.0000 </r>
       <r>   -5.5258    1.0000 </r>
       <r>   -5.2199    1.0000 </r>
       <r>   -5.1989    1.0000 </r>
       <r>   -5.1962    1.0000 </r>
       <r>   -5.1397    1.0000 </r>
       <r>   -5.1340    1.0000 </r>
       <r>   -5.1047    1.0000 </r>
       <r>   -5.0000    1.0000 </r>
       <r>   -4.9464    1.0000 </r>
       <r>   -4.9168    1.0000 </r>
       <r>   -4.9070    1.0000 </r>
       <r>   -4.8973    1.0000 </r>
       <r>   -4.7304    1.0000 </r>
       <r>   -1.3157    1.0000 </r>
       <r>   -1.2005    0.0000 </r>
       <r>    0.0583    0.0000 </r>
       <r>    0.2046    0.0000 </r>
       <r>    0.2363    0.0000 </r>
       <r>    0.2555    0.0000 </r>
       <r>    0.2630    0.0000 </r>
       <r>    0.3031    0.0000 </r>
       <r>    0.3044    0.0000 </r>
       <r>    0.3799    0.0000 </r>
       <r>    0.3937    0.0000 </r>
       <r>    0.4334    0.0000 </r>
       <r>    0.4803    0.0000 </r>
       <r>    0.5243    0.0000 </r>
       <r>    0.6106    0.0000 </r>
       <r>    0.7475    0.0000 </r>
       <r>    0.7494    0.0000 </r>
       <r>    0.7795    0.0000 </r>
       <r>    0.8058    0.0000 </r>
       <r>    0.8112    0.0000 </r>
       <r>    0.8276    0.0000 </r>
       <r>    0.8380    0.0000 </r>
       <r>    0.8590    0.0000 </r>
       <r>    0.8710    0.0000 </r>
       <r>    0.9802    0.0000 </r>
       <r>    1.0206    0.0000 </r>
       <r>    1.0607    0.0000 </r>
       <r>    1.1185    0.0000 </r>
       <r>    1.4953    0.0000 </r>
       <r>    1.6720    0.0000 </r>
       <r>    1.6966    0.0000 </r>
       <r>    1.7062    0.0000 </r>
       <r>    1.7241    0.0000 </r>
       <r>    1.7405    0.0000 </r>
       <r>    1.7446    0.0000 </r>
       <r>    1.8041    0.0000 </r>
       <r>    1.8071    0.0000 </r>
       <r>    1.8440    0.0000 </r>
       <r>    1.8466    0.0000 </r>
       <r>    1.8783    0.0000 </r>
       <r>    1.8819    0.0000 </r>
       <r>    1.9071    0.0000 </r>
       <r>    1.9077    0.0000 </r>
       <r>    1.9315    0.0000 </r>
       <r>    1.9840    0.0000 </r>
       <r>    2.0308    0.0000 </r>
       <r>    2.1018    0.0000 </r>
       <r>    2.1093    0.0000 </r>
       <r>    2.1270    0.0000 </r>
       <r>    2.1339    0.0000 </r>
       <r>    2.1398    0.0000 </r>
      </set>
     </set>
    </set>
   </array>
  </eigenvalues>
  <separator name="orbital magnetization" >
   <v name="MAGDIPOLOUT">      0.00000000      0.00000000      0.00000000</v>
  </separator>
  <dos>
   <i name="efermi">     -1.25316012 </i>
   <total>
    <array>
     <dimension dim="1">gridpoints</dimension>
     <dimension dim="2">spin</dimension>
     <field>energy</field>
     <field>total</field>
     <field>integrated</field>
     <set>
      <set comment="spin 1">
       <r>   -23.7778     0.0000     0.0000 </r>
       <r>   -23.6873     0.0000     0.0000 </r>
       <r>   -23.5968     0.0000     0.0000 </r>
       <r>   -23.5063     0.0000     0.0000 </r>
       <r>   -23.4158     0.0000     0.0000 </r>
       <r>   -23.3253     0.0000     0.0000 </r>
       <r>   -23.2348     0.0000     0.0000 </r>
       <r>   -23.1443     0.0000     0.0000 </r>
       <r>   -23.0538     0.0000     0.0000 </r>
       <r>   -22.9633     0.0000     0.0000 </r>
       <r>   -22.8727     0.0000     0.0000 </r>
       <r>   -22.7822     0.0000     0.0000 </r>
       <r>   -22.6917     0.0000     0.0000 </r>
       <r>   -22.6012     0.0000     0.0000 </r>
       <r>   -22.5107    22.0980     2.0000 </r>
       <r>   -22.4202     0.0000     2.0000 </r>
       <r>   -22.3297     0.0000     2.0000 </r>
       <r>   -22.2392     0.0000     2.0000 </r>
       <r>   -22.1487     0.0000     2.0000 </r>
       <r>   -22.0582     0.0000     2.0000 </r>
       <r>   -21.9677    22.0980     4.0000 </r>
       <r>   -21.8772     0.0000     4.0000 </r>
       <r>   -21.7867     1.3267     4.1201 </r>
       <r>   -21.6962    53.6519     8.9759 </r>
       <r>   -21.6057    43.4722    13.9345 </r>
       <r>   -21.5152     0.0000    14.0000 </r>
       <r>   -21.4247     0.0000    14.0000 </r>
       <r>   -21.3341     0.0000    14.0000 </r>
       <r>   -21.2436     3.3664    14.3047 </r>
       <r>   -21.1531     0.0000    16.0000 </r>
       <r>   -21.0626    19.4526    17.7606 </r>
       <r>   -20.9721    29.9779    20.7132 </r>
       <r>   -20.8816    28.8420    24.6104 </r>
       <r>   -20.7911     0.0000    26.0000 </r>
       <r>   -20.7006    35.6994    29.2310 </r>
       <r>   -20.6101    22.4557    32.0324 </r>
       <r>   -20.5196    43.8383    36.0000 </r>
       <r>   -20.4291     9.3431    36.8456 </r>
       <r>   -20.3386     0.0000    38.0000 </r>
       <r>   -20.2481     0.0000    38.0000 </r>
       <r>   -20.1576     0.0000    38.0000 </r>
       <r>   -20.0671     0.0000    38.0000 </r>
       <r>   -19.9766    15.2789    39.3828 </r>
       <r>   -19.8861    22.0980    42.0000 </r>
       <r>   -19.7955    21.5955    43.9545 </r>
       <r>   -19.7050    82.6315    51.4786 </r>
       <r>   -19.6145    65.5431    59.9320 </r>
       <r>   -19.5240     0.0003    60.0000 </r>
       <r>   -19.4335    22.1002    62.0002 </r>
       <r>   -19.3430    65.2219    67.9032 </r>
       <r>   -19.2525    22.9022    70.0728 </r>
       <r>   -19.1620    21.2938    72.0000 </r>
       <r>   -19.0715    22.0980    74.0000 </r>
       <r>   -18.9810    22.0448    75.9952 </r>
       <r>   -18.8905    22.6434    78.0494 </r>
       <r>   -18.8000    65.7487    84.0000 </r>
       <r>   -18.7095    79.4552    91.1912 </r>
       <r>   -18.6190    21.8747    94.0000 </r>
       <r>   -18.5285     0.0000    94.0000 </r>
       <r>   -18.4380    16.5522    95.4981 </r>
       <r>   -18.3475     0.0000    96.0000 </r>
       <r>   -18.2569     0.0000    96.0000 </r>
       <r>   -18.1664     0.0000    96.0000 </r>
       <r>   -18.0759     0.0000    96.0000 </r>
       <r>   -17.9854     0.0000    96.0000 </r>
       <r>   -17.8949     0.0000    96.0000 </r>
       <r>   -17.8044     0.0000    96.0000 </r>
       <r>   -17.7139     0.0000    96.0000 </r>
       <r>   -17.6234     0.0000    96.0000 </r>
       <r>   -17.5329     0.0000    96.0000 </r>
       <r>   -17.4424     0.0000    96.0000 </r>
       <r>   -17.3519     0.0000    96.0000 </r>
       <r>   -17.2614     0.0000    96.0000 </r>
       <r>   -17.1709     0.0000    96.0000 </r>
       <r>   -17.0804     0.0000    96.0000 </r>
       <r>   -16.9899     0.0000    96.0000 </r>
       <r>   -16.8994     0.0000    96.0000 </r>
       <r>   -16.8089     0.0000    96.0000 </r>
       <r>   -16.7183     0.0000    96.0000 </r>
       <r>   -16.6278     0.0000    96.0000 </r>
       <r>   -16.5373     0.0000    96.0000 </r>
       <r>   -16.4468     0.0000    96.0000 </r>
       <r>   -16.3563     0.0000    96.0000 </r>
       <r>   -16.2658     0.0000    96.0000 </r>
       <r>   -16.1753     0.0000    96.0000 </r>
       <r>   -16.0848     0.0000    96.0000 </r>
       <r>   -15.9943     0.0000    96.0000 </r>
       <r>   -15.9038     0.0000    96.0000 </r>
       <r>   -15.8133     0.0000    96.0000 </r>
       <r>   -15.7228     0.0000    96.0000 </r>
       <r>   -15.6323     0.0000    96.0000 </r>
       <r>   -15.5418     0.0000    96.0000 </r>
       <r>   -15.4513     0.0000    96.0000 </r>
       <r>   -15.3608     0.0000    96.0000 </r>
       <r>   -15.2703     0.0000    96.0000 </r>
       <r>   -15.1797     0.0000    96.0000 </r>
       <r>   -15.0892     0.0000    96.0000 </r>
       <r>   -14.9987     0.0000    96.0000 </r>
       <r>   -14.9082     0.0000    96.0000 </r>
       <r>   -14.8177     0.0000    96.0000 </r>
       <r>   -14.7272     0.0000    96.0000 </r>
       <r>   -14.6367     0.0000    96.0000 </r>
       <r>   -14.5462     0.0000    96.0000 </r>
       <r>   -14.4557     0.0000    96.0000 </r>
       <r>   -14.3652     0.0000    96.0000 </r>
       <r>   -14.2747     0.0000    96.0000 </r>
       <r>   -14.1842     0.0000    96.0000 </r>
       <r>   -14.0937    22.0980    98.0000 </r>
       <r>   -14.0032     0.0000    98.0000 </r>
       <r>   -13.9127     0.0000    98.0000 </r>
       <r>   -13.8222     0.0000    98.0000 </r>
       <r>   -13.7317     0.0000    98.0000 </r>
       <r>   -13.6411     0.0000    98.0000 </r>
       <r>   -13.5506     0.0000    98.0000 </r>
       <r>   -13.4601     0.0000    98.0000 </r>
       <r>   -13.3696     0.0000    98.0000 </r>
       <r>   -13.2791     0.0000    98.0000 </r>
       <r>   -13.1886     6.5948    98.5969 </r>
       <r>   -13.0981    62.8582   105.6893 </r>
       <r>   -13.0076    41.0813   109.7233 </r>
       <r>   -12.9171    66.1453   115.9865 </r>
       <r>   -12.8266     0.0136   116.0012 </r>
       <r>   -12.7361    44.1824   120.0000 </r>
       <r>   -12.6456     0.0000   120.0000 </r>
       <r>   -12.5551    22.0980   122.0000 </r>
       <r>   -12.4646    44.1719   125.9978 </r>
       <r>   -12.3741    15.2690   127.3819 </r>
       <r>   -12.2836    43.0657   131.8977 </r>
       <r>   -12.1931     0.1110   132.0101 </r>
       <r>   -12.1025    21.9870   134.0000 </r>
       <r>   -12.0120     0.0000   134.0000 </r>
       <r>   -11.9215     0.0828   134.0075 </r>
       <r>   -11.8310    44.1132   138.0000 </r>
       <r>   -11.7405    76.1095   144.8884 </r>
       <r>   -11.6500    37.1140   149.3590 </r>
       <r>   -11.5595    22.1422   152.0110 </r>
       <r>   -11.4690    21.9768   154.0000 </r>
       <r>   -11.3785    22.0980   156.0000 </r>
       <r>   -11.2880     0.0000   156.0000 </r>
       <r>   -11.1975    15.6858   157.4197 </r>
       <r>   -11.1070    21.9278   159.9846 </r>
       <r>   -11.0165    44.1808   164.0000 </r>
       <r>   -10.9260    22.3682   166.0244 </r>
       <r>   -10.8355    21.8279   168.0000 </r>
       <r>   -10.7450     0.0000   168.0000 </r>
       <r>   -10.6545    22.0976   170.0000 </r>
       <r>   -10.5639     0.0000   170.0000 </r>
       <r>   -10.4734     1.9866   170.1798 </r>
       <r>   -10.3829    22.0980   174.0000 </r>
       <r>   -10.2924    22.0980   176.0000 </r>
       <r>   -10.2019    39.2011   179.5479 </r>
       <r>   -10.1114     0.0000   180.0000 </r>
       <r>   -10.0209     0.0000   180.0000 </r>
       <r>    -9.9304     0.0000   180.0000 </r>
       <r>    -9.8399    22.0980   182.0000 </r>
       <r>    -9.7494    44.0309   185.9851 </r>
       <r>    -9.6589    44.1013   189.9927 </r>
       <r>    -9.5684    21.9910   191.9903 </r>
       <r>    -9.4779    44.7976   196.0547 </r>
       <r>    -9.3874    21.3878   198.0000 </r>
       <r>    -9.2969    46.7631   202.2323 </r>
       <r>    -9.2064   157.2498   218.2320 </r>
       <r>    -9.1159    51.7836   228.6867 </r>
       <r>    -9.0253    43.6432   235.9706 </r>
       <r>    -8.9348    22.0980   238.0000 </r>
       <r>    -8.8443    11.6517   239.0545 </r>
       <r>    -8.7538    22.0980   242.0000 </r>
       <r>    -8.6633     2.0056   242.1815 </r>
       <r>    -8.5728     0.0000   244.0000 </r>
       <r>    -8.4823    30.0476   246.7195 </r>
       <r>    -8.3918    22.0980   250.0000 </r>
       <r>    -8.3013    22.0958   251.9998 </r>
       <r>    -8.2108    23.5064   254.1275 </r>
       <r>    -8.1203   100.1144   263.2432 </r>
       <r>    -8.0298    20.4561   265.8514 </r>
       <r>    -7.9393    41.8852   269.7909 </r>
       <r>    -7.8488    39.7884   273.6011 </r>
       <r>    -7.7583    66.3370   282.0039 </r>
       <r>    -7.6678   110.4163   291.9972 </r>
       <r>    -7.5773    44.1958   298.0000 </r>
       <r>    -7.4868     0.0000   298.0000 </r>
       <r>    -7.3962    67.4613   304.1056 </r>
       <r>    -7.3057    43.0288   308.0000 </r>
       <r>    -7.2152    22.0980   310.0000 </r>
       <r>    -7.1247     0.0000   310.0000 </r>
       <r>    -7.0342     0.0000   310.0000 </r>
       <r>    -6.9437     0.0000   310.0000 </r>
       <r>    -6.8532     0.0178   310.0016 </r>
       <r>    -6.7627    28.8052   312.6086 </r>
       <r>    -6.6722     0.0000   314.0000 </r>
       <r>    -6.5817    44.1913   317.9996 </r>
       <r>    -6.4912    77.7271   325.0348 </r>
       <r>    -6.4007   123.2653   337.1562 </r>
       <r>    -6.3102    59.7249   343.4055 </r>
       <r>    -6.2197     0.0000   344.0000 </r>
       <r>    -6.1292     0.1587   344.0144 </r>
       <r>    -6.0387    21.9394   346.0000 </r>
       <r>    -5.9482    22.0904   347.9993 </r>
       <r>    -5.8576    80.8726   355.3199 </r>
       <r>    -5.7671    42.3705   359.8348 </r>
       <r>    -5.6766     0.0000   360.0000 </r>
       <r>    -5.5861     0.0000   360.0000 </r>
       <r>    -5.4956    22.0978   362.0000 </r>
       <r>    -5.4051     0.0000   362.0000 </r>
       <r>    -5.3146     0.0000   362.0000 </r>
       <r>    -5.2241     6.1469   362.5563 </r>
       <r>    -5.1336    73.5629   370.6583 </r>
       <r>    -5.0431    22.0975   374.0000 </r>
       <r>    -4.9526    26.3491   376.3847 </r>
       <r>    -4.8621    66.2940   384.0000 </r>
       <r>    -4.7716     0.0000   384.0000 </r>
       <r>    -4.6811    22.0980   386.0000 </r>
       <r>    -4.5906     0.0000   386.0000 </r>
       <r>    -4.5001     0.0000   386.0000 </r>
       <r>    -4.4096     0.0000   386.0000 </r>
       <r>    -4.3190     0.0000   386.0000 </r>
       <r>    -4.2285     0.0000   386.0000 </r>
       <r>    -4.1380     0.0000   386.0000 </r>
       <r>    -4.0475     0.0000   386.0000 </r>
       <r>    -3.9570     0.0000   386.0000 </r>
       <r>    -3.8665     0.0000   386.0000 </r>
       <r>    -3.7760     0.0000   386.0000 </r>
       <r>    -3.6855     0.0000   386.0000 </r>
       <r>    -3.5950     0.0000   386.0000 </r>
       <r>    -3.5045     0.0000   386.0000 </r>
       <r>    -3.4140     0.0000   386.0000 </r>
       <r>    -3.3235     0.0000   386.0000 </r>
       <r>    -3.2330     0.0000   386.0000 </r>
       <r>    -3.1425     0.0000   386.0000 </r>
       <r>    -3.0520     0.0000   386.0000 </r>
       <r>    -2.9615     0.0000   386.0000 </r>
       <r>    -2.8710     0.0000   386.0000 </r>
       <r>    -2.7804     0.0000   386.0000 </r>
       <r>    -2.6899     0.0000   386.0000 </r>
       <r>    -2.5994     0.0000   386.0000 </r>
       <r>    -2.5089     0.0000   386.0000 </r>
       <r>    -2.4184     0.0000   386.0000 </r>
       <r>    -2.3279     0.0000   386.0000 </r>
       <r>    -2.2374     0.0000   386.0000 </r>
       <r>    -2.1469     0.0000   386.0000 </r>
       <r>    -2.0564     0.0000   386.0000 </r>
       <r>    -1.9659     0.0000   386.0000 </r>
       <r>    -1.8754     0.0000   386.0000 </r>
       <r>    -1.7849     0.0000   386.0000 </r>
       <r>    -1.6944     0.0000   386.0000 </r>
       <r>    -1.6039     0.0000   386.0000 </r>
       <r>    -1.5134     0.0000   386.0000 </r>
       <r>    -1.4229     0.0000   386.0000 </r>
       <r>    -1.3324     0.2081   386.0188 </r>
       <r>    -1.2418    21.8899   388.0000 </r>
       <r>    -1.1513    22.0980   390.0000 </r>
       <r>    -1.0608     0.0000   390.0000 </r>
       <r>    -0.9703     0.0000   390.0000 </r>
       <r>    -0.8798     0.0000   390.0000 </r>
       <r>    -0.7893     0.0000   390.0000 </r>
       <r>    -0.6988     0.0000   390.0000 </r>
       <r>    -0.6083     0.0000   390.0000 </r>
       <r>    -0.5178     0.0000   390.0000 </r>
       <r>    -0.4273     0.0000   390.0000 </r>
       <r>    -0.3368     0.0000   390.0000 </r>
       <r>    -0.2463     0.0000   390.0000 </r>
       <r>    -0.1558     0.0000   390.0000 </r>
       <r>    -0.0653     0.0000   390.0000 </r>
       <r>     0.0252     0.0000   390.0000 </r>
       <r>     0.1157    22.0980   392.0000 </r>
       <r>     0.2062    13.0577   393.1818 </r>
       <r>     0.2968    73.4788   400.6503 </r>
       <r>     0.3873    22.8082   406.0643 </r>
       <r>     0.4778    30.0136   410.7164 </r>
       <r>     0.5683    22.0980   414.0000 </r>
       <r>     0.6588    22.0980   416.0000 </r>
       <r>     0.7493    24.0953   418.1808 </r>
       <r>     0.8398   100.7246   429.1162 </r>
       <r>     0.9303    44.1227   434.0000 </r>
       <r>     1.0208    33.4227   437.0250 </r>
       <r>     1.1113    25.4868   440.3067 </r>
       <r>     1.2018     0.0000   442.0000 </r>
       <r>     1.2923     0.0000   442.0000 </r>
       <r>     1.3828     0.0000   442.0000 </r>
       <r>     1.4733     0.0211   442.0019 </r>
       <r>     1.5638    22.0770   444.0000 </r>
       <r>     1.6543     0.1361   444.0123 </r>
       <r>     1.7448   115.6478   454.4791 </r>
       <r>     1.8354    47.8898   460.3343 </r>
       <r>     1.9259   113.7291   472.4064 </r>
       <r>     2.0164    22.5474   476.0407 </r>
       <r>     2.1069    46.6723   480.2648 </r>
       <r>     2.1974    66.2441   488.0000 </r>
       <r>     2.2879     0.0000   488.0000 </r>
       <r>     2.3784     0.0000   488.0000 </r>
       <r>     2.4689     0.0000   488.0000 </r>
       <r>     2.5594     0.0000   488.0000 </r>
       <r>     2.6499     0.0000   488.0000 </r>
       <r>     2.7404     0.0000   488.0000 </r>
       <r>     2.8309     0.0000   488.0000 </r>
       <r>     2.9214     0.0000   488.0000 </r>
       <r>     3.0119     0.0000   488.0000 </r>
       <r>     3.1024     0.0000   488.0000 </r>
       <r>     3.1929     0.0000   488.0000 </r>
       <r>     3.2834     0.0000   488.0000 </r>
       <r>     3.3740     0.0000   488.0000 </r>
      </set>
     </set>
    </array>
   </total>
  </dos>
 </calculation>
 <structure name="finalpos" >
  <crystal>
   <varray name="basis" >
    <v>      17.59966831       0.00000000       0.00000000 </v>
    <v>      -8.79983416      15.24175986       0.00000000 </v>
    <v>       0.00000000       0.00000000      19.92151445 </v>
   </varray>
   <i name="volume">   5343.94461817 </i>
   <varray name="rec_basis" >
    <v>       0.05681925       0.03280461       0.00000000 </v>
    <v>       0.00000000       0.06560922       0.00000000 </v>
    <v>       0.00000000       0.00000000       0.05019699 </v>
   </varray>
  </crystal>
  <varray name="positions" >
   <v>       0.99943010       0.00005992       0.50000000 </v>
   <v>       0.14164706       0.99871895       0.50000000 </v>
   <v>       0.28492260       0.99841663       0.50000000 </v>
   <v>       0.42850047       0.99871895       0.50000000 </v>
   <v>       0.57205839       0.00005992       0.50000000 </v>
   <v>       0.71530655       0.00214292       0.50000000 </v>
   <v>       0.85826494       0.00214292       0.50000000 </v>
   <v>       0.00080792       0.14408264       0.50000000 </v>
   <v>       0.14259355       0.14244783       0.50000000 </v>
   <v>       0.28470221       0.14112972       0.50000000 </v>
   <v>       0.42785608       0.14112972       0.50000000 </v>
   <v>       0.57128286       0.14244783       0.50000000 </v>
   <v>       0.71470329       0.14408264       0.50000000 </v>
   <v>       0.85805263       0.14467669       0.50000000 </v>
   <v>       0.00095476       0.28713011       0.50000000 </v>
   <v>       0.14372552       0.28645370       0.50000000 </v>
   <v>       0.28540977       0.28469374       0.50000000 </v>
   <v>       0.42724431       0.28306005       0.50000000 </v>
   <v>       0.57071254       0.28469374       0.50000000 </v>
   <v>       0.71415674       0.28645370       0.50000000 </v>
   <v>       0.85760392       0.28713011       0.50000000 </v>
   <v>       0.00054479       0.42966101       0.50000000 </v>
   <v>       0.14422690       0.42957551       0.50000000 </v>
   <v>       0.28730213       0.42861186       0.50000000 </v>
   <v>       0.42797654       0.42569726       0.50000000 </v>
   <v>       0.56914930       0.42569726       0.50000000 </v>
   <v>       0.71330650       0.42918005       0.50000000 </v>
   <v>       0.85677719       0.42957551       0.50000000 </v>
   <v>       0.99928255       0.57181462       0.50000000 </v>
   <v>       0.14396064       0.57181462       0.50000000 </v>
   <v>       0.28862787       0.57181625       0.50000000 </v>
   <v>       0.43313209       0.57215564       0.50000000 </v>
   <v>       0.71045212       0.57215564       0.50000000 </v>
   <v>       0.85461695       0.57181625       0.50000000 </v>
   <v>       0.99707234       0.71370518       0.50000000 </v>
   <v>       0.14255519       0.71368182       0.50000000 </v>
   <v>       0.28806142       0.71370518       0.50000000 </v>
   <v>       0.43464191       0.71382540       0.50000000 </v>
   <v>       0.58510826       0.71626937       0.50000000 </v>
   <v>       0.70258968       0.71626937       0.50000000 </v>
   <v>       0.85061206       0.71382540       0.50000000 </v>
   <v>       0.99777175       0.85613493       0.50000000 </v>
   <v>       0.14160898       0.85591288       0.50000000 </v>
   <v>       0.28573247       0.85591288       0.50000000 </v>
   <v>       0.42979175       0.85613493       0.50000000 </v>
   <v>       0.57342541       0.85758690       0.50000000 </v>
   <v>       0.71640633       0.86138410       0.50000000 </v>
   <v>       0.85559006       0.85758690       0.50000000 </v>
   <v>       0.04754270       0.09547788       0.50000000 </v>
   <v>       0.18957833       0.09405657       0.50000000 </v>
   <v>       0.33254182       0.09365506       0.50000000 </v>
   <v>       0.47590681       0.09405657       0.50000000 </v>
   <v>       0.61936376       0.09547788       0.50000000 </v>
   <v>       0.76280004       0.09719274       0.50000000 </v>
   <v>       0.90582126       0.09719274       0.50000000 </v>
   <v>       0.04854983       0.23934281       0.50000000 </v>
   <v>       0.19048138       0.23782962       0.50000000 </v>
   <v>       0.33234878       0.23634667       0.50000000 </v>
   <v>       0.47542646       0.23634667       0.50000000 </v>
   <v>       0.61877681       0.23782962       0.50000000 </v>
   <v>       0.76222155       0.23934281       0.50000000 </v>
   <v>       0.90562797       0.23982737       0.50000000 </v>
   <v>       0.04871288       0.38232824       0.50000000 </v>
   <v>       0.19188940       0.38184213       0.50000000 </v>
   <v>       0.33352206       0.38013969       0.50000000 </v>
   <v>       0.47472270       0.37801683       0.50000000 </v>
   <v>       0.61804620       0.38013969       0.50000000 </v>
   <v>       0.76138130       0.38184213       0.50000000 </v>
   <v>       0.90504393       0.38232824       0.50000000 </v>
   <v>       0.04810654       0.52478452       0.50000000 </v>
   <v>       0.19263929       0.52476864       0.50000000 </v>
   <v>       0.33696521       0.52455433       0.50000000 </v>
   <v>       0.47833704       0.52146721       0.50000000 </v>
   <v>       0.61455874       0.52146721       0.50000000 </v>
   <v>       0.75901769       0.52455433       0.50000000 </v>
   <v>       0.90355792       0.52476864       0.50000000 </v>
   <v>       0.04642473       0.66685228       0.50000000 </v>
   <v>       0.19185612       0.66685228       0.50000000 </v>
   <v>       0.33777931       0.66688794       0.50000000 </v>
   <v>       0.48615700       0.66710760       0.50000000 </v>
   <v>       0.75237918       0.66710760       0.50000000 </v>
   <v>       0.90053720       0.66688794       0.50000000 </v>
   <v>       0.04582562       0.80879365       0.50000000 </v>
   <v>       0.19009580       0.80876303       0.50000000 </v>
   <v>       0.33439660       0.80879365       0.50000000 </v>
   <v>       0.47844872       0.80897069       0.50000000 </v>
   <v>       0.62209487       0.81129474       0.50000000 </v>
   <v>       0.76062845       0.81129474       0.50000000 </v>
   <v>       0.90195054       0.80897069       0.50000000 </v>
   <v>       0.04629157       0.95154386       0.50000000 </v>
   <v>       0.18948291       0.95113037       0.50000000 </v>
   <v>       0.33307603       0.95113037       0.50000000 </v>
   <v>       0.47668087       0.95154386       0.50000000 </v>
   <v>       0.62015751       0.95313740       0.50000000 </v>
   <v>       0.76355772       0.95568687       0.50000000 </v>
   <v>       0.90440847       0.95313740       0.50000000 </v>
   <v>       0.56830873       0.56518888       0.50000000 </v>
  </varray>
 </structure>
</modeling>
