<?xml version="1.0" encoding="ISO-8859-1"?>
<modeling>
 <generator>
  <i name="program" type="string">vasp </i>
  <i name="version" type="string">5.4.4.18Apr17-6-g9f103f2a35  </i>
  <i name="subversion" type="string">(build Oct 18 2020 22:16:12) gamma-only         parallel </i>
  <i name="platform" type="string">UA-vaughan-2020a </i>
  <i name="date" type="string">2023 03 21 </i>
  <i name="time" type="string">22:36:44 </i>
 </generator>
 <incar>
  <i type="string" name="PREC">accurate</i>
  <i type="int" name="IALGO">    38</i>
  <i type="logical" name="ADDGRID"> T  </i>
  <i type="int" name="NELMIN">     5</i>
  <i type="int" name="IBRION">    -1</i>
  <i name="EDIFF">      0.00000001</i>
  <i name="EDIFFG">     -0.00000001</i>
  <i type="int" name="NSW">     0</i>
  <i type="int" name="ISIF">     2</i>
  <i name="ENCUT">    500.00000000</i>
  <i type="logical" name="LREAL"> F  </i>
  <i type="int" name="ISMEAR">     0</i>
  <i name="SIGMA">      0.01000000</i>
  <i type="logical" name="LWAVE"> F  </i>
  <i type="logical" name="LCHARG"> F  </i>
  <v type="int" name="KPOINT_BSE">    -1     0     0     0</v>
 </incar>
 <structure name="primitive_cell" >
  <crystal>
   <varray name="basis" >
    <v>      17.59966831       0.00000000       0.00000000 </v>
    <v>      -8.79983416      15.24175986       0.00000000 </v>
    <v>       0.00000000       0.00000000      19.92151445 </v>
   </varray>
   <i name="volume">   5343.94461817 </i>
   <varray name="rec_basis" >
    <v>       0.05681925       0.03280461       0.00000000 </v>
    <v>       0.00000000       0.06560922       0.00000000 </v>
    <v>       0.00000000       0.00000000       0.05019699 </v>
   </varray>
  </crystal>
  <varray name="positions" >
   <v>      -0.00056990       0.00005992      -0.50000000 </v>
   <v>      -0.09559153      -0.04686260      -0.50000000 </v>
   <v>       0.04629157      -0.04845614      -0.50000000 </v>
   <v>       0.04754270       0.09604608      -0.50000000 </v>
   <v>      -0.14173506       0.00214292      -0.50000000 </v>
   <v>       0.14259355       0.14244783      -0.50000000 </v>
   <v>       0.14164706      -0.00128105      -0.50000000 </v>
   <v>      -0.00222825      -0.14386507      -0.50000000 </v>
   <v>      -0.14440994      -0.14241310      -0.50000000 </v>
   <v>       0.00080792       0.14408264      -0.50000000 </v>
   <v>       0.18957833       0.09405657      -0.50000000 </v>
   <v>      -0.09417874       0.09719274      -0.50000000 </v>
   <v>      -0.09804946      -0.19102931      -0.50000000 </v>
   <v>      -0.23644228      -0.04431313      -0.50000000 </v>
   <v>      -0.23937155      -0.18870526      -0.50000000 </v>
   <v>       0.19048138       0.23782962      -0.50000000 </v>
   <v>       0.04582562      -0.19120635      -0.50000000 </v>
   <v>       0.18948291      -0.04886963      -0.50000000 </v>
   <v>       0.04854983       0.23934281      -0.50000000 </v>
   <v>      -0.28359367      -0.13861590      -0.50000000 </v>
   <v>       0.28470221       0.14112972      -0.50000000 </v>
   <v>      -0.14194737       0.14467669      -0.50000000 </v>
   <v>      -0.14938794      -0.28617460      -0.50000000 </v>
   <v>       0.14160898      -0.14408712      -0.50000000 </v>
   <v>       0.14372552       0.28645370      -0.50000000 </v>
   <v>      -0.28469345       0.00214292      -0.50000000 </v>
   <v>      -0.00292766      -0.28629482      -0.50000000 </v>
   <v>       0.28540977       0.28469374      -0.50000000 </v>
   <v>       0.00095476       0.28713011      -0.50000000 </v>
   <v>       0.28492260      -0.00158337      -0.50000000 </v>
   <v>      -0.29741032      -0.28373063      -0.50000000 </v>
   <v>      -0.09946280      -0.33311206      -0.50000000 </v>
   <v>       0.33234878       0.23634667      -0.50000000 </v>
   <v>      -0.23719996       0.09719274      -0.50000000 </v>
   <v>       0.33254182       0.09365506      -0.50000000 </v>
   <v>      -0.09437203       0.23982737      -0.50000000 </v>
   <v>      -0.24762082      -0.33289240      -0.50000000 </v>
   <v>      -0.37790513      -0.18870526      -0.50000000 </v>
   <v>       0.19188940       0.38184213      -0.50000000 </v>
   <v>       0.19009580      -0.19123697      -0.50000000 </v>
   <v>      -0.37984249      -0.04686260      -0.50000000 </v>
   <v>       0.04642473      -0.33314772      -0.50000000 </v>
   <v>       0.33352206       0.38013969      -0.50000000 </v>
   <v>       0.04871288       0.38232824      -0.50000000 </v>
   <v>       0.33307603      -0.04886963      -0.50000000 </v>
   <v>      -0.41489174      -0.28373063      -0.50000000 </v>
   <v>      -0.42657459      -0.14241310      -0.50000000 </v>
   <v>       0.42724431       0.28306005      -0.50000000 </v>
   <v>      -0.14538305      -0.42818375      -0.50000000 </v>
   <v>      -0.28529671       0.14408264      -0.50000000 </v>
   <v>      -0.28954788      -0.42784436      -0.50000000 </v>
   <v>       0.42785608       0.14112972      -0.50000000 </v>
   <v>      -0.14239608       0.28713011      -0.50000000 </v>
   <v>       0.14422690       0.42957551      -0.50000000 </v>
   <v>       0.28730213       0.42918005      -0.50000000 </v>
   <v>       0.14255519      -0.28631818      -0.50000000 </v>
   <v>       0.28573247      -0.14408712      -0.50000000 </v>
   <v>      -0.24098231      -0.47544567      -0.50000000 </v>
   <v>       0.47542646       0.23634667      -0.50000000 </v>
   <v>      -0.23777845       0.23934281      -0.50000000 </v>
   <v>       0.42797654       0.42569726      -0.50000000 </v>
   <v>      -0.42794161       0.00005992      -0.50000000 </v>
   <v>      -0.00071745      -0.42818538      -0.50000000 </v>
   <v>       0.00054479       0.42966101      -0.50000000 </v>
   <v>       0.42850047      -0.00128105      -0.50000000 </v>
   <v>      -0.43169127      -0.43481112      -0.50000000 </v>
   <v>       0.47472270       0.37801683      -0.50000000 </v>
   <v>      -0.09644208      -0.47523136      -0.50000000 </v>
   <v>      -0.38063624       0.09547788      -0.50000000 </v>
   <v>       0.47590681       0.09405657      -0.50000000 </v>
   <v>      -0.09495607       0.38232824      -0.50000000 </v>
   <v>      -0.38544126      -0.47853279      -0.50000000 </v>
   <v>       0.48615700      -0.33289240      -0.50000000 </v>
   <v>       0.47844872      -0.19102931      -0.50000000 </v>
   <v>       0.19263929      -0.47523136      -0.50000000 </v>
   <v>       0.33696521      -0.47544567      -0.50000000 </v>
   <v>       0.19185612      -0.33314772      -0.50000000 </v>
   <v>       0.33439660      -0.19120635      -0.50000000 </v>
   <v>       0.43464191      -0.28617460      -0.50000000 </v>
   <v>      -0.28669350       0.42918005      -0.50000000 </v>
   <v>      -0.42928746       0.28469374      -0.50000000 </v>
   <v>      -0.28584326       0.28645370      -0.50000000 </v>
   <v>       0.28862787      -0.42818375      -0.50000000 </v>
   <v>       0.28806142      -0.28629482      -0.50000000 </v>
   <v>       0.47668087      -0.04845614      -0.50000000 </v>
   <v>       0.47833704      -0.47853279      -0.50000000 </v>
   <v>       0.04810654      -0.47521548      -0.50000000 </v>
   <v>       0.43313209      -0.42784436      -0.50000000 </v>
   <v>       0.42979175      -0.14386507      -0.50000000 </v>
   <v>      -0.43085070       0.42569726      -0.50000000 </v>
   <v>      -0.14322281       0.42957551      -0.50000000 </v>
   <v>      -0.42871714       0.14244783      -0.50000000 </v>
   <v>       0.14396064      -0.42818538      -0.50000000 </v>
   <v>      -0.23861870       0.38184213      -0.50000000 </v>
   <v>      -0.38122319       0.23782962      -0.50000000 </v>
   <v>      -0.38195380       0.38013969      -0.50000000 </v>
   <v>       0.33777931      -0.33311206      -0.50000000 </v>
  </varray>
 </structure>
 <varray name="primitive_index" >
  <v type="int" >        1 </v>
  <v type="int" >       96 </v>
  <v type="int" >       90 </v>
  <v type="int" >       49 </v>
  <v type="int" >        7 </v>
  <v type="int" >        9 </v>
  <v type="int" >        2 </v>
  <v type="int" >       42 </v>
  <v type="int" >       48 </v>
  <v type="int" >        8 </v>
  <v type="int" >       50 </v>
  <v type="int" >       55 </v>
  <v type="int" >       89 </v>
  <v type="int" >       95 </v>
  <v type="int" >       88 </v>
  <v type="int" >       57 </v>
  <v type="int" >       83 </v>
  <v type="int" >       91 </v>
  <v type="int" >       56 </v>
  <v type="int" >       47 </v>
  <v type="int" >       10 </v>
  <v type="int" >       14 </v>
  <v type="int" >       41 </v>
  <v type="int" >       43 </v>
  <v type="int" >       16 </v>
  <v type="int" >        6 </v>
  <v type="int" >       35 </v>
  <v type="int" >       17 </v>
  <v type="int" >       15 </v>
  <v type="int" >        3 </v>
  <v type="int" >       40 </v>
  <v type="int" >       82 </v>
  <v type="int" >       58 </v>
  <v type="int" >       54 </v>
  <v type="int" >       51 </v>
  <v type="int" >       62 </v>
  <v type="int" >       81 </v>
  <v type="int" >       87 </v>
  <v type="int" >       64 </v>
  <v type="int" >       84 </v>
  <v type="int" >       94 </v>
  <v type="int" >       77 </v>
  <v type="int" >       65 </v>
  <v type="int" >       63 </v>
  <v type="int" >       92 </v>
  <v type="int" >       39 </v>
  <v type="int" >       46 </v>
  <v type="int" >       18 </v>
  <v type="int" >       34 </v>
  <v type="int" >       13 </v>
  <v type="int" >       33 </v>
  <v type="int" >       11 </v>
  <v type="int" >       21 </v>
  <v type="int" >       23 </v>
  <v type="int" >       24 </v>
  <v type="int" >       36 </v>
  <v type="int" >       44 </v>
  <v type="int" >       75 </v>
  <v type="int" >       59 </v>
  <v type="int" >       61 </v>
  <v type="int" >       25 </v>
  <v type="int" >        5 </v>
  <v type="int" >       29 </v>
  <v type="int" >       22 </v>
  <v type="int" >        4 </v>
  <v type="int" >       97 </v>
  <v type="int" >       66 </v>
  <v type="int" >       76 </v>
  <v type="int" >       53 </v>
  <v type="int" >       52 </v>
  <v type="int" >       69 </v>
  <v type="int" >       74 </v>
  <v type="int" >       80 </v>
  <v type="int" >       86 </v>
  <v type="int" >       71 </v>
  <v type="int" >       72 </v>
  <v type="int" >       78 </v>
  <v type="int" >       85 </v>
  <v type="int" >       38 </v>
  <v type="int" >       27 </v>
  <v type="int" >       19 </v>
  <v type="int" >       20 </v>
  <v type="int" >       31 </v>
  <v type="int" >       37 </v>
  <v type="int" >       93 </v>
  <v type="int" >       73 </v>
  <v type="int" >       70 </v>
  <v type="int" >       32 </v>
  <v type="int" >       45 </v>
  <v type="int" >       26 </v>
  <v type="int" >       28 </v>
  <v type="int" >       12 </v>
  <v type="int" >       30 </v>
  <v type="int" >       68 </v>
  <v type="int" >       60 </v>
  <v type="int" >       67 </v>
  <v type="int" >       79 </v>
 </varray>
 <kpoints>
  <generation param="Gamma">
   <v type="int" name="divisions">       1        1        1 </v>
   <v name="usershift">      0.00000000       0.00000000       0.00000000 </v>
   <v name="genvec1">      1.00000000      -0.00000000       0.00000000 </v>
   <v name="genvec2">      0.00000000       1.00000000       0.00000000 </v>
   <v name="genvec3">      0.00000000       0.00000000       1.00000000 </v>
   <v name="shift">      0.00000000       0.00000000       0.00000000 </v>
  </generation>
  <varray name="kpointlist" >
   <v>       0.00000000       0.00000000       0.00000000 </v>
  </varray>
  <varray name="weights" >
   <v>       1.00000000 </v>
  </varray>
 </kpoints>
 <parameters>
  <separator name="general" >
   <i type="string" name="SYSTEM">unknown system</i>
   <i type="logical" name="LCOMPAT"> F  </i>
  </separator>
  <separator name="electronic" >
   <i type="string" name="PREC">accura</i>
   <i name="ENMAX">    500.00000000</i>
   <i name="ENAUG">    644.87300000</i>
   <i name="EDIFF">      0.00000001</i>
   <i type="int" name="IALGO">    38</i>
   <i type="int" name="IWAVPR">    10</i>
   <i type="int" name="NBANDS">   244</i>
   <i name="NELECT">    388.00000000</i>
   <i type="int" name="TURBO">     0</i>
   <i type="int" name="IRESTART">     0</i>
   <i type="int" name="NREBOOT">     0</i>
   <i type="int" name="NMIN">     0</i>
   <i name="EREF">      0.00000000</i>
   <separator name="electronic smearing" >
    <i type="int" name="ISMEAR">     0</i>
    <i name="SIGMA">      0.01000000</i>
    <i name="KSPACING">      0.50000000</i>
    <i type="logical" name="KGAMMA"> T  </i>
   </separator>
   <separator name="electronic projectors" >
    <i type="logical" name="LREAL"> F  </i>
    <v name="ROPT">      0.00000000      0.00000000      0.00000000</v>
    <i type="int" name="LMAXPAW">  -100</i>
    <i type="int" name="LMAXMIX">     2</i>
    <i type="logical" name="NLSPLINE"> F  </i>
   </separator>
   <separator name="electronic startup" >
    <i type="int" name="ISTART">     0</i>
    <i type="int" name="ICHARG">     2</i>
    <i type="int" name="INIWAV">     1</i>
   </separator>
   <separator name="electronic spin" >
    <i type="int" name="ISPIN">     1</i>
    <i type="logical" name="LNONCOLLINEAR"> F  </i>
    <v name="MAGMOM">      1.00000000      1.00000000      1.00000000      1.00000000      1.00000000      1.00000000      1.00000000      1.00000000      1.00000000      1.00000000      1.00000000      1.00000000      1.00000000      1.00000000      1.00000000      1.00000000      1.00000000      1.00000000      1.00000000      1.00000000
      1.00000000      1.00000000      1.00000000      1.00000000      1.00000000      1.00000000      1.00000000      1.00000000      1.00000000      1.00000000      1.00000000      1.00000000      1.00000000      1.00000000      1.00000000      1.00000000      1.00000000      1.00000000      1.00000000      1.00000000
      1.00000000      1.00000000      1.00000000      1.00000000      1.00000000      1.00000000      1.00000000      1.00000000      1.00000000      1.00000000      1.00000000      1.00000000      1.00000000      1.00000000      1.00000000      1.00000000      1.00000000      1.00000000      1.00000000      1.00000000
      1.00000000      1.00000000      1.00000000      1.00000000      1.00000000      1.00000000      1.00000000      1.00000000      1.00000000      1.00000000      1.00000000      1.00000000      1.00000000      1.00000000      1.00000000      1.00000000      1.00000000      1.00000000      1.00000000      1.00000000
      1.00000000      1.00000000      1.00000000      1.00000000      1.00000000      1.00000000      1.00000000      1.00000000      1.00000000      1.00000000      1.00000000      1.00000000      1.00000000      1.00000000      1.00000000      1.00000000      1.00000000</v>
    <i name="NUPDOWN">     -1.00000000</i>
    <i type="logical" name="LSORBIT"> F  </i>
    <v name="SAXIS">      0.00000000      0.00000000      1.00000000</v>
    <i type="logical" name="LSPIRAL"> F  </i>
    <v name="QSPIRAL">      0.00000000      0.00000000      0.00000000</v>
    <i type="logical" name="LZEROZ"> F  </i>
   </separator>
   <separator name="electronic exchange-correlation" >
    <i type="logical" name="LASPH"> F  </i>
    <i type="logical" name="LMETAGGA"> F  </i>
   </separator>
   <separator name="electronic convergence" >
    <i type="int" name="NELM">    60</i>
    <i type="int" name="NELMDL">    -5</i>
    <i type="int" name="NELMIN">     5</i>
    <i name="ENINI">    500.00000000</i>
    <separator name="electronic convergence detail" >
     <i type="logical" name="LDIAG"> T  </i>
     <i type="logical" name="LSUBROT"> F  </i>
     <i name="WEIMIN">      0.00000000</i>
     <i name="EBREAK">      0.00000000</i>
     <i name="DEPER">      0.30000000</i>
     <i type="int" name="NRMM">     4</i>
     <i name="TIME">      0.40000000</i>
    </separator>
   </separator>
   <separator name="electronic mixer" >
    <i name="AMIX">      0.40000000</i>
    <i name="BMIX">      1.00000000</i>
    <i name="AMIN">      0.10000000</i>
    <i name="AMIX_MAG">      1.60000000</i>
    <i name="BMIX_MAG">      1.00000000</i>
    <separator name="electronic mixer details" >
     <i type="int" name="IMIX">     4</i>
     <i type="logical" name="MIXFIRST"> F  </i>
     <i type="int" name="MAXMIX">   -45</i>
     <i name="WC">    100.00000000</i>
     <i type="int" name="INIMIX">     1</i>
     <i type="int" name="MIXPRE">     1</i>
     <i type="int" name="MREMOVE">     5</i>
    </separator>
   </separator>
   <separator name="electronic dipolcorrection" >
    <i type="logical" name="LDIPOL"> F  </i>
    <i type="logical" name="LMONO"> F  </i>
    <i type="int" name="IDIPOL">     0</i>
    <i name="EPSILON">      1.00000000</i>
    <v name="DIPOL">   -100.00000000   -100.00000000   -100.00000000</v>
    <i name="EFIELD">      0.00000000</i>
   </separator>
  </separator>
  <separator name="grids" >
   <i type="int" name="NGX">   128</i>
   <i type="int" name="NGY">   128</i>
   <i type="int" name="NGZ">   150</i>
   <i type="int" name="NGXF">   256</i>
   <i type="int" name="NGYF">   256</i>
   <i type="int" name="NGZF">   300</i>
   <i type="logical" name="ADDGRID"> T  </i>
  </separator>
  <separator name="ionic" >
   <i type="int" name="NSW">     0</i>
   <i type="int" name="IBRION">    -1</i>
   <i type="int" name="MDALGO">     0</i>
   <i type="int" name="ISIF">     2</i>
   <i name="PSTRESS">      0.00000000</i>
   <i name="EDIFFG">     -0.00000001</i>
   <i type="int" name="NFREE">     0</i>
   <i name="POTIM">      0.50000000</i>
   <i name="SMASS">     -3.00000000</i>
   <i name="SCALEE">      1.00000000</i>
  </separator>
  <separator name="ionic md" >
   <i name="TEBEG">      0.00010000</i>
   <i name="TEEND">      0.00010000</i>
   <i type="int" name="NBLOCK">     1</i>
   <i type="int" name="KBLOCK">     1</i>
   <i type="int" name="NPACO">   256</i>
   <i name="APACO">     16.00000000</i>
  </separator>
  <separator name="symmetry" >
   <i type="int" name="ISYM">     2</i>
   <i name="SYMPREC">      0.00001000</i>
  </separator>
  <separator name="dos" >
   <i type="int" name="LORBIT">     0</i>
   <v name="RWIGS">     -1.00000000     -1.00000000     -1.00000000</v>
   <i type="int" name="NEDOS">   301</i>
   <i name="EMIN">     10.00000000</i>
   <i name="EMAX">    -10.00000000</i>
   <i name="EFERMI">      0.00000000</i>
  </separator>
  <separator name="writing" >
   <i type="int" name="NWRITE">     2</i>
   <i type="logical" name="LWAVE"> F  </i>
   <i type="logical" name="LDOWNSAMPLE"> F  </i>
   <i type="logical" name="LCHARG"> F  </i>
   <i type="logical" name="LPARD"> F  </i>
   <i type="logical" name="LVTOT"> F  </i>
   <i type="logical" name="LVHAR"> F  </i>
   <i type="logical" name="LELF"> F  </i>
   <i type="logical" name="LOPTICS"> F  </i>
   <v name="STM">      0.00000000      0.00000000      0.00000000      0.00000000      0.00000000      0.00000000      0.00000000</v>
  </separator>
  <separator name="performance" >
   <i type="int" name="NPAR">     4</i>
   <i type="int" name="NSIM">     4</i>
   <i type="int" name="NBLK">    -1</i>
   <i type="logical" name="LPLANE"> T  </i>
   <i type="logical" name="LSCALAPACK"> T  </i>
   <i type="logical" name="LSCAAWARE"> F  </i>
   <i type="logical" name="LSCALU"> F  </i>
   <i type="logical" name="LASYNC"> F  </i>
   <i type="logical" name="LORBITALREAL"> F  </i>
  </separator>
  <separator name="miscellaneous" >
   <i type="int" name="IDIOT">     3</i>
   <i type="int" name="ISPECIAL">     0</i>
   <i type="logical" name="LMUSIC"> F  </i>
   <v name="POMASS">     10.81100000     14.00100000     12.01100000</v>
   <v name="DARWINR">      0.00000000      0.00000000      0.00000000</v>
   <v name="DARWINV">      1.00000000      1.00000000      1.00000000</v>
   <i type="logical" name="LCORR"> T  </i>
  </separator>
  <i type="logical" name="GGA_COMPAT"> T  </i>
  <i type="logical" name="LBERRY"> F  </i>
  <i type="int" name="ICORELEVEL">     0</i>
  <i type="logical" name="LDAU"> F  </i>
  <i type="int" name="I_CONSTRAINED_M">     0</i>
  <separator name="electronic exchange-correlation" >
   <i type="string" name="GGA">--</i>
   <i type="int" name="VOSKOWN">     0</i>
   <i type="logical" name="LHFCALC"> F  </i>
   <i type="string" name="PRECFOCK"></i>
   <i type="logical" name="LSYMGRAD"> F  </i>
   <i type="logical" name="LHFONE"> F  </i>
   <i type="logical" name="LRHFCALC"> F  </i>
   <i type="logical" name="LTHOMAS"> F  </i>
   <i type="logical" name="LMODELHF"> F  </i>
   <i name="ENCUT4O">     -1.00000000</i>
   <i type="int" name="EXXOEP">     0</i>
   <i type="int" name="FOURORBIT">     0</i>
   <i name="AEXX">      0.00000000</i>
   <i name="HFALPHA">      0.00000000</i>
   <i name="MCALPHA">      0.00000000</i>
   <i name="ALDAX">      1.00000000</i>
   <i name="AGGAX">      1.00000000</i>
   <i name="ALDAC">      1.00000000</i>
   <i name="AGGAC">      1.00000000</i>
   <i type="int" name="NKREDX">     1</i>
   <i type="int" name="NKREDY">     1</i>
   <i type="int" name="NKREDZ">     1</i>
   <i type="logical" name="SHIFTRED"> F  </i>
   <i type="logical" name="ODDONLY"> F  </i>
   <i type="logical" name="EVENONLY"> F  </i>
   <i type="int" name="LMAXFOCK">     0</i>
   <i type="int" name="NMAXFOCKAE">     0</i>
   <i type="logical" name="LFOCKAEDFT"> F  </i>
   <i name="HFSCREEN">      0.00000000</i>
   <i name="HFSCREENC">      0.00000000</i>
   <i type="int" name="NBANDSGWLOW">     0</i>
  </separator>
  <separator name="vdW DFT" >
   <i type="logical" name="LUSE_VDW"> F  </i>
   <i name="Zab_VDW">     -0.84910000</i>
   <i name="PARAM1">      0.12340000</i>
   <i name="PARAM2">      1.00000000</i>
   <i name="PARAM3">      0.00000000</i>
  </separator>
  <separator name="model GW" >
   <i type="int" name="MODEL_GW">     0</i>
   <i name="MODEL_EPS0">     33.05532754</i>
   <i name="MODEL_ALPHA">      1.00000000</i>
  </separator>
  <separator name="linear response parameters" >
   <i type="logical" name="LEPSILON"> F  </i>
   <i type="logical" name="LRPA"> F  </i>
   <i type="logical" name="LNABLA"> F  </i>
   <i type="logical" name="LVEL"> F  </i>
   <i type="int" name="KINTER">     0</i>
   <i name="CSHIFT">      0.10000000</i>
   <i name="OMEGAMAX">     -1.00000000</i>
   <i name="DEG_THRESHOLD">      0.00200000</i>
   <i name="RTIME">     -0.10000000</i>
   <i name="WPLASMAI">      0.00000000</i>
   <v name="DFIELD">      0.00000000      0.00000000      0.00000000</v>
   <v name="WPLASMA">      0.00000000      0.00000000      0.00000000      0.00000000      0.00000000      0.00000000      0.00000000      0.00000000      0.00000000</v>
  </separator>
  <separator name="orbital magnetization" >
   <i type="logical" name="NUCIND"> F  </i>
   <v name="MAGPOS">      0.00000000      0.00000000      0.00000000</v>
   <i type="logical" name="LNICSALL"> T  </i>
   <i type="logical" name="ORBITALMAG"> F  </i>
   <i type="logical" name="LMAGBLOCH"> F  </i>
   <i type="logical" name="LCHIMAG"> F  </i>
   <i type="logical" name="LGAUGE"> T  </i>
   <i type="int" name="MAGATOM">     0</i>
   <v name="MAGDIPOL">      0.00000000      0.00000000      0.00000000</v>
   <v name="AVECCONST">      0.00000000      0.00000000      0.00000000</v>
  </separator>
  <separator name="response functions" >
   <i type="logical" name="LADDER"> F  </i>
   <i type="logical" name="LRPAFORCE"> F  </i>
   <i type="logical" name="LFXC"> F  </i>
   <i type="logical" name="LHARTREE"> T  </i>
   <i type="int" name="IBSE">     0</i>
   <v type="int" name="KPOINT">    -1     0     0     0</v>
   <i type="logical" name="LTCTE"> F  </i>
   <i type="logical" name="LTETE"> F  </i>
   <i type="logical" name="LTRIPLET"> F  </i>
   <i type="logical" name="LFXCEPS"> F  </i>
   <i type="logical" name="LFXHEG"> F  </i>
   <i type="int" name="NATURALO">     2</i>
   <i type="logical" name="L2ORDER"> F  </i>
   <i type="logical" name="LMP2LT"> F  </i>
   <i type="logical" name="LUSEW"> F  </i>
   <i name="ENCUTGW">     -2.00000000</i>
   <i name="ENCUTGWSOFT">     -2.00000000</i>
   <i name="ENCUTLF">     -1.00000000</i>
   <i type="int" name="LMAXMP2">    -1</i>
   <i name="SCISSOR">      0.00000000</i>
   <i type="int" name="NOMEGA">     0</i>
   <i type="int" name="NOMEGAR">     0</i>
   <i type="int" name="NBANDSGW">    -1</i>
   <i type="int" name="NBANDSO">    -1</i>
   <i type="int" name="NBANDSV">    -1</i>
   <i type="int" name="NELM">     1</i>
   <i type="int" name="NELMHF">     1</i>
   <i type="int" name="DIM">     3</i>
   <i type="int" name="ANTIRES">     0</i>
   <i name="OMEGAMAX">    -30.00000000</i>
   <i name="OMEGAMIN">    -30.00000000</i>
   <i name="OMEGATL">   -200.00000000</i>
   <i type="int" name="OMEGAGRID">   140</i>
   <i name="CSHIFT">     -0.10000000</i>
   <i type="logical" name="SELFENERGY"> F  </i>
   <i type="logical" name="LSPECTRAL"> F  </i>
   <i type="logical" name="LSPECTRALGW"> F  </i>
   <i type="logical" name="LSINGLES"> F  </i>
   <i type="logical" name="LFERMIGW"> F  </i>
   <i type="logical" name="ODDONLYGW"> F  </i>
   <i type="logical" name="EVENONLYGW"> F  </i>
   <i type="int" name="NKREDLFX">     1</i>
   <i type="int" name="NKREDLFY">     1</i>
   <i type="int" name="NKREDLFZ">     1</i>
   <i type="int" name="MAXMEM">  2800</i>
   <i type="int" name="TELESCOPE">     0</i>
   <i type="int" name="TAUPAR">     1</i>
   <i type="int" name="OMEGAPAR">    -1</i>
   <i name="LAMBDA">      1.00000000</i>
  </separator>
  <separator name="External order field" >
   <i name="OFIELD_KAPPA">      0.00000000</i>
   <v name="OFIELD_K">      0.00000000      0.00000000      0.00000000</v>
   <i name="OFIELD_Q6_NEAR">      0.00000000</i>
   <i name="OFIELD_Q6_FAR">      0.00000000</i>
   <i name="OFIELD_A">      0.00000000</i>
  </separator>
 </parameters>
 <atominfo>
  <atoms>      97 </atoms>
  <types>       3 </types>
  <array name="atoms" >
   <dimension dim="1">ion</dimension>
   <field type="string">element</field>
   <field type="int">atomtype</field>
   <set>
    <rc><c>B </c><c>   1</c></rc>
    <rc><c>B </c><c>   1</c></rc>
    <rc><c>B </c><c>   1</c></rc>
    <rc><c>B </c><c>   1</c></rc>
    <rc><c>B </c><c>   1</c></rc>
    <rc><c>B </c><c>   1</c></rc>
    <rc><c>B </c><c>   1</c></rc>
    <rc><c>B </c><c>   1</c></rc>
    <rc><c>B </c><c>   1</c></rc>
    <rc><c>B </c><c>   1</c></rc>
    <rc><c>B </c><c>   1</c></rc>
    <rc><c>B </c><c>   1</c></rc>
    <rc><c>B </c><c>   1</c></rc>
    <rc><c>B </c><c>   1</c></rc>
    <rc><c>B </c><c>   1</c></rc>
    <rc><c>B </c><c>   1</c></rc>
    <rc><c>B </c><c>   1</c></rc>
    <rc><c>B </c><c>   1</c></rc>
    <rc><c>B </c><c>   1</c></rc>
    <rc><c>B </c><c>   1</c></rc>
    <rc><c>B </c><c>   1</c></rc>
    <rc><c>B </c><c>   1</c></rc>
    <rc><c>B </c><c>   1</c></rc>
    <rc><c>B </c><c>   1</c></rc>
    <rc><c>B </c><c>   1</c></rc>
    <rc><c>B </c><c>   1</c></rc>
    <rc><c>B </c><c>   1</c></rc>
    <rc><c>B </c><c>   1</c></rc>
    <rc><c>B </c><c>   1</c></rc>
    <rc><c>B </c><c>   1</c></rc>
    <rc><c>B </c><c>   1</c></rc>
    <rc><c>B </c><c>   1</c></rc>
    <rc><c>B </c><c>   1</c></rc>
    <rc><c>B </c><c>   1</c></rc>
    <rc><c>B </c><c>   1</c></rc>
    <rc><c>B </c><c>   1</c></rc>
    <rc><c>B </c><c>   1</c></rc>
    <rc><c>B </c><c>   1</c></rc>
    <rc><c>B </c><c>   1</c></rc>
    <rc><c>B </c><c>   1</c></rc>
    <rc><c>B </c><c>   1</c></rc>
    <rc><c>B </c><c>   1</c></rc>
    <rc><c>B </c><c>   1</c></rc>
    <rc><c>B </c><c>   1</c></rc>
    <rc><c>B </c><c>   1</c></rc>
    <rc><c>B </c><c>   1</c></rc>
    <rc><c>B </c><c>   1</c></rc>
    <rc><c>B </c><c>   1</c></rc>
    <rc><c>N </c><c>   2</c></rc>
    <rc><c>N </c><c>   2</c></rc>
    <rc><c>N </c><c>   2</c></rc>
    <rc><c>N </c><c>   2</c></rc>
    <rc><c>N </c><c>   2</c></rc>
    <rc><c>N </c><c>   2</c></rc>
    <rc><c>N </c><c>   2</c></rc>
    <rc><c>N </c><c>   2</c></rc>
    <rc><c>N </c><c>   2</c></rc>
    <rc><c>N </c><c>   2</c></rc>
    <rc><c>N </c><c>   2</c></rc>
    <rc><c>N </c><c>   2</c></rc>
    <rc><c>N </c><c>   2</c></rc>
    <rc><c>N </c><c>   2</c></rc>
    <rc><c>N </c><c>   2</c></rc>
    <rc><c>N </c><c>   2</c></rc>
    <rc><c>N </c><c>   2</c></rc>
    <rc><c>N </c><c>   2</c></rc>
    <rc><c>N </c><c>   2</c></rc>
    <rc><c>N </c><c>   2</c></rc>
    <rc><c>N </c><c>   2</c></rc>
    <rc><c>N </c><c>   2</c></rc>
    <rc><c>N </c><c>   2</c></rc>
    <rc><c>N </c><c>   2</c></rc>
    <rc><c>N </c><c>   2</c></rc>
    <rc><c>N </c><c>   2</c></rc>
    <rc><c>N </c><c>   2</c></rc>
    <rc><c>N </c><c>   2</c></rc>
    <rc><c>N </c><c>   2</c></rc>
    <rc><c>N </c><c>   2</c></rc>
    <rc><c>N </c><c>   2</c></rc>
    <rc><c>N </c><c>   2</c></rc>
    <rc><c>N </c><c>   2</c></rc>
    <rc><c>N </c><c>   2</c></rc>
    <rc><c>N </c><c>   2</c></rc>
    <rc><c>N </c><c>   2</c></rc>
    <rc><c>N </c><c>   2</c></rc>
    <rc><c>N </c><c>   2</c></rc>
    <rc><c>N </c><c>   2</c></rc>
    <rc><c>N </c><c>   2</c></rc>
    <rc><c>N </c><c>   2</c></rc>
    <rc><c>N </c><c>   2</c></rc>
    <rc><c>N </c><c>   2</c></rc>
    <rc><c>N </c><c>   2</c></rc>
    <rc><c>N </c><c>   2</c></rc>
    <rc><c>N </c><c>   2</c></rc>
    <rc><c>N </c><c>   2</c></rc>
    <rc><c>N </c><c>   2</c></rc>
    <rc><c>C </c><c>   3</c></rc>
   </set>
  </array>
  <array name="atomtypes" >
   <dimension dim="1">type</dimension>
   <field type="int">atomspertype</field>
   <field type="string">element</field>
   <field>mass</field>
   <field>valence</field>
   <field type="string">pseudopotential</field>
   <set>
    <rc><c>  48</c><c>B </c><c>     10.81100000</c><c>      3.00000000</c><c>  PAW_PBE B 06Sep2000                   </c></rc>
    <rc><c>  48</c><c>N </c><c>     14.00100000</c><c>      5.00000000</c><c>  PAW_PBE N 08Apr2002                   </c></rc>
    <rc><c>   1</c><c>C </c><c>     12.01100000</c><c>      4.00000000</c><c>  PAW_PBE C 08Apr2002                   </c></rc>
   </set>
  </array>
 </atominfo>
 <structure name="initialpos" >
  <crystal>
   <varray name="basis" >
    <v>      17.59966831       0.00000000       0.00000000 </v>
    <v>      -8.79983416      15.24175986       0.00000000 </v>
    <v>       0.00000000       0.00000000      19.92151445 </v>
   </varray>
   <i name="volume">   5343.94461817 </i>
   <varray name="rec_basis" >
    <v>       0.05681925       0.03280461       0.00000000 </v>
    <v>       0.00000000       0.06560922       0.00000000 </v>
    <v>       0.00000000       0.00000000       0.05019699 </v>
   </varray>
  </crystal>
  <varray name="positions" >
   <v>       0.99943010       0.00005992       0.50000000 </v>
   <v>       0.14164706       0.99871895       0.50000000 </v>
   <v>       0.28492260       0.99841663       0.50000000 </v>
   <v>       0.42850047       0.99871895       0.50000000 </v>
   <v>       0.57205839       0.00005992       0.50000000 </v>
   <v>       0.71530655       0.00214292       0.50000000 </v>
   <v>       0.85826494       0.00214292       0.50000000 </v>
   <v>       0.00080792       0.14408264       0.50000000 </v>
   <v>       0.14259355       0.14244783       0.50000000 </v>
   <v>       0.28470221       0.14112972       0.50000000 </v>
   <v>       0.42785608       0.14112972       0.50000000 </v>
   <v>       0.57128286       0.14244783       0.50000000 </v>
   <v>       0.71470329       0.14408264       0.50000000 </v>
   <v>       0.85805263       0.14467669       0.50000000 </v>
   <v>       0.00095476       0.28713011       0.50000000 </v>
   <v>       0.14372552       0.28645370       0.50000000 </v>
   <v>       0.28540977       0.28469374       0.50000000 </v>
   <v>       0.42724431       0.28306005       0.50000000 </v>
   <v>       0.57071254       0.28469374       0.50000000 </v>
   <v>       0.71415674       0.28645370       0.50000000 </v>
   <v>       0.85760392       0.28713011       0.50000000 </v>
   <v>       0.00054479       0.42966101       0.50000000 </v>
   <v>       0.14422690       0.42957551       0.50000000 </v>
   <v>       0.28730213       0.42918005       0.50000000 </v>
   <v>       0.42797654       0.42569726       0.50000000 </v>
   <v>       0.56914930       0.42569726       0.50000000 </v>
   <v>       0.71330650       0.42918005       0.50000000 </v>
   <v>       0.85677719       0.42957551       0.50000000 </v>
   <v>       0.99928255       0.57181462       0.50000000 </v>
   <v>       0.14396064       0.57181462       0.50000000 </v>
   <v>       0.28862787       0.57181625       0.50000000 </v>
   <v>       0.43313209       0.57215564       0.50000000 </v>
   <v>       0.71045212       0.57215564       0.50000000 </v>
   <v>       0.85461695       0.57181625       0.50000000 </v>
   <v>       0.99707234       0.71370518       0.50000000 </v>
   <v>       0.14255519       0.71368182       0.50000000 </v>
   <v>       0.28806142       0.71370518       0.50000000 </v>
   <v>       0.43464191       0.71382540       0.50000000 </v>
   <v>       0.58510826       0.71626937       0.50000000 </v>
   <v>       0.70258968       0.71626937       0.50000000 </v>
   <v>       0.85061206       0.71382540       0.50000000 </v>
   <v>       0.99777175       0.85613493       0.50000000 </v>
   <v>       0.14160898       0.85591288       0.50000000 </v>
   <v>       0.28573247       0.85591288       0.50000000 </v>
   <v>       0.42979175       0.85613493       0.50000000 </v>
   <v>       0.57342541       0.85758690       0.50000000 </v>
   <v>       0.71640633       0.86138410       0.50000000 </v>
   <v>       0.85559006       0.85758690       0.50000000 </v>
   <v>       0.04754270       0.09604608       0.50000000 </v>
   <v>       0.18957833       0.09405657       0.50000000 </v>
   <v>       0.33254182       0.09365506       0.50000000 </v>
   <v>       0.47590681       0.09405657       0.50000000 </v>
   <v>       0.61936376       0.09547788       0.50000000 </v>
   <v>       0.76280004       0.09719274       0.50000000 </v>
   <v>       0.90582126       0.09719274       0.50000000 </v>
   <v>       0.04854983       0.23934281       0.50000000 </v>
   <v>       0.19048138       0.23782962       0.50000000 </v>
   <v>       0.33234878       0.23634667       0.50000000 </v>
   <v>       0.47542646       0.23634667       0.50000000 </v>
   <v>       0.61877681       0.23782962       0.50000000 </v>
   <v>       0.76222155       0.23934281       0.50000000 </v>
   <v>       0.90562797       0.23982737       0.50000000 </v>
   <v>       0.04871288       0.38232824       0.50000000 </v>
   <v>       0.19188940       0.38184213       0.50000000 </v>
   <v>       0.33352206       0.38013969       0.50000000 </v>
   <v>       0.47472270       0.37801683       0.50000000 </v>
   <v>       0.61804620       0.38013969       0.50000000 </v>
   <v>       0.76138130       0.38184213       0.50000000 </v>
   <v>       0.90504393       0.38232824       0.50000000 </v>
   <v>       0.04810654       0.52478452       0.50000000 </v>
   <v>       0.19263929       0.52476864       0.50000000 </v>
   <v>       0.33696521       0.52455433       0.50000000 </v>
   <v>       0.47833704       0.52146721       0.50000000 </v>
   <v>       0.61455874       0.52146721       0.50000000 </v>
   <v>       0.75901769       0.52455433       0.50000000 </v>
   <v>       0.90355792       0.52476864       0.50000000 </v>
   <v>       0.04642473       0.66685228       0.50000000 </v>
   <v>       0.19185612       0.66685228       0.50000000 </v>
   <v>       0.33777931       0.66688794       0.50000000 </v>
   <v>       0.48615700       0.66710760       0.50000000 </v>
   <v>       0.75237918       0.66710760       0.50000000 </v>
   <v>       0.90053720       0.66688794       0.50000000 </v>
   <v>       0.04582562       0.80879365       0.50000000 </v>
   <v>       0.19009580       0.80876303       0.50000000 </v>
   <v>       0.33439660       0.80879365       0.50000000 </v>
   <v>       0.47844872       0.80897069       0.50000000 </v>
   <v>       0.62209487       0.81129474       0.50000000 </v>
   <v>       0.76062845       0.81129474       0.50000000 </v>
   <v>       0.90195054       0.80897069       0.50000000 </v>
   <v>       0.04629157       0.95154386       0.50000000 </v>
   <v>       0.18948291       0.95113037       0.50000000 </v>
   <v>       0.33307603       0.95113037       0.50000000 </v>
   <v>       0.47668087       0.95154386       0.50000000 </v>
   <v>       0.62015751       0.95313740       0.50000000 </v>
   <v>       0.76355772       0.95568687       0.50000000 </v>
   <v>       0.90440847       0.95313740       0.50000000 </v>
   <v>       0.56830873       0.56518888       0.50000000 </v>
  </varray>
 </structure>
 <calculation>
  <scstep>
   <time name="dav">    2.36    2.38</time>
   <time name="total">    2.75    2.86</time>
   <energy>
    <i name="alphaZ">    156.50993408 </i>
    <i name="ewald">  58206.80877413 </i>
    <i name="hartreedc"> -70374.22666789 </i>
    <i name="XCdc">   1302.10888389 </i>
    <i name="pawpsdc">  12033.28670802 </i>
    <i name="pawaedc"> -12049.96799276 </i>
    <i name="eentropy">     -0.00000000 </i>
    <i name="bandstr">   -904.55413091 </i>
    <i name="atom">  16260.93880140 </i>
    <i name="e_fr_energy">   4630.90430996 </i>
    <i name="e_wo_entrp">   4630.90430996 </i>
    <i name="e_0_energy">   4630.90430996 </i>
   </energy>
  </scstep>
  <scstep>
   <time name="dav">    2.99    3.03</time>
   <time name="total">    2.99    3.03</time>
   <energy>
    <i name="e_fr_energy">    216.77726368 </i>
    <i name="e_wo_entrp">    216.77726368 </i>
    <i name="e_0_energy">    216.77726368 </i>
   </energy>
  </scstep>
  <scstep>
   <time name="dav">    2.49    2.52</time>
   <time name="total">    2.49    2.52</time>
   <energy>
    <i name="e_fr_energy">   -867.46306229 </i>
    <i name="e_wo_entrp">   -867.46306229 </i>
    <i name="e_0_energy">   -867.46306229 </i>
   </energy>
  </scstep>
  <scstep>
   <time name="dav">    2.48    2.51</time>
   <time name="total">    2.48    2.51</time>
   <energy>
    <i name="e_fr_energy">   -934.19499355 </i>
    <i name="e_wo_entrp">   -934.19499355 </i>
    <i name="e_0_energy">   -934.19499355 </i>
   </energy>
  </scstep>
  <scstep>
   <time name="dav">    2.50    2.54</time>
   <time name="total">    2.94    2.99</time>
   <energy>
    <i name="e_fr_energy">   -935.77560733 </i>
    <i name="e_wo_entrp">   -935.77560733 </i>
    <i name="e_0_energy">   -935.77560733 </i>
   </energy>
  </scstep>
  <scstep>
   <time name="dav">    2.33    2.35</time>
   <time name="total">    3.46    3.55</time>
   <energy>
    <i name="e_fr_energy">   -858.73167913 </i>
    <i name="e_wo_entrp">   -858.73167913 </i>
    <i name="e_0_energy">   -858.73167913 </i>
   </energy>
  </scstep>
  <scstep>
   <time name="dav">    2.37    2.40</time>
   <time name="total">    3.20    3.24</time>
   <energy>
    <i name="e_fr_energy">   -850.19298505 </i>
    <i name="e_wo_entrp">   -850.19298505 </i>
    <i name="e_0_energy">   -850.19298505 </i>
   </energy>
  </scstep>
  <scstep>
   <time name="dav">    2.30    2.32</time>
   <time name="total">    3.10    3.14</time>
   <energy>
    <i name="e_fr_energy">   -845.92620627 </i>
    <i name="e_wo_entrp">   -845.92620532 </i>
    <i name="e_0_energy">   -845.92620580 </i>
   </energy>
  </scstep>
  <scstep>
   <time name="dav">    2.42    2.45</time>
   <time name="total">    3.22    3.27</time>
   <energy>
    <i name="e_fr_energy">   -845.80066309 </i>
    <i name="e_wo_entrp">   -845.80066309 </i>
    <i name="e_0_energy">   -845.80066309 </i>
   </energy>
  </scstep>
  <scstep>
   <time name="dav">    2.38    2.40</time>
   <time name="total">    3.19    3.23</time>
   <energy>
    <i name="e_fr_energy">   -845.63929357 </i>
    <i name="e_wo_entrp">   -845.63929357 </i>
    <i name="e_0_energy">   -845.63929357 </i>
   </energy>
  </scstep>
  <scstep>
   <time name="dav">    2.23    2.25</time>
   <time name="total">    3.04    3.07</time>
   <energy>
    <i name="e_fr_energy">   -845.58686860 </i>
    <i name="e_wo_entrp">   -845.58686860 </i>
    <i name="e_0_energy">   -845.58686860 </i>
   </energy>
  </scstep>
  <scstep>
   <time name="dav">    2.26    2.28</time>
   <time name="total">    3.07    3.10</time>
   <energy>
    <i name="e_fr_energy">   -845.57390867 </i>
    <i name="e_wo_entrp">   -845.57390867 </i>
    <i name="e_0_energy">   -845.57390867 </i>
   </energy>
  </scstep>
  <scstep>
   <time name="dav">    2.24    2.26</time>
   <time name="total">    3.05    3.08</time>
   <energy>
    <i name="e_fr_energy">   -845.58453949 </i>
    <i name="e_wo_entrp">   -845.58453949 </i>
    <i name="e_0_energy">   -845.58453949 </i>
   </energy>
  </scstep>
  <scstep>
   <time name="dav">    2.23    2.25</time>
   <time name="total">    3.04    3.08</time>
   <energy>
    <i name="e_fr_energy">   -845.59402498 </i>
    <i name="e_wo_entrp">   -845.59402498 </i>
    <i name="e_0_energy">   -845.59402498 </i>
   </energy>
  </scstep>
  <scstep>
   <time name="dav">    2.18    2.20</time>
   <time name="total">    2.98    3.02</time>
   <energy>
    <i name="e_fr_energy">   -845.62536953 </i>
    <i name="e_wo_entrp">   -845.62536953 </i>
    <i name="e_0_energy">   -845.62536953 </i>
   </energy>
  </scstep>
  <scstep>
   <time name="dav">    2.20    2.22</time>
   <time name="total">    3.00    3.04</time>
   <energy>
    <i name="e_fr_energy">   -845.64171470 </i>
    <i name="e_wo_entrp">   -845.64171470 </i>
    <i name="e_0_energy">   -845.64171470 </i>
   </energy>
  </scstep>
  <scstep>
   <time name="dav">    2.33    2.35</time>
   <time name="total">    3.14    3.17</time>
   <energy>
    <i name="e_fr_energy">   -845.64796192 </i>
    <i name="e_wo_entrp">   -845.64796192 </i>
    <i name="e_0_energy">   -845.64796192 </i>
   </energy>
  </scstep>
  <scstep>
   <time name="dav">    2.18    2.20</time>
   <time name="total">    2.99    3.02</time>
   <energy>
    <i name="e_fr_energy">   -845.65115840 </i>
    <i name="e_wo_entrp">   -845.65115840 </i>
    <i name="e_0_energy">   -845.65115840 </i>
   </energy>
  </scstep>
  <scstep>
   <time name="dav">    2.31    2.33</time>
   <time name="total">    3.12    3.16</time>
   <energy>
    <i name="e_fr_energy">   -845.65218226 </i>
    <i name="e_wo_entrp">   -845.65218226 </i>
    <i name="e_0_energy">   -845.65218226 </i>
   </energy>
  </scstep>
  <scstep>
   <time name="dav">    2.23    2.25</time>
   <time name="total">    3.04    3.07</time>
   <energy>
    <i name="e_fr_energy">   -845.65260287 </i>
    <i name="e_wo_entrp">   -845.65260287 </i>
    <i name="e_0_energy">   -845.65260287 </i>
   </energy>
  </scstep>
  <scstep>
   <time name="dav">    2.25    2.27</time>
   <time name="total">    3.06    3.10</time>
   <energy>
    <i name="e_fr_energy">   -845.65280644 </i>
    <i name="e_wo_entrp">   -845.65280644 </i>
    <i name="e_0_energy">   -845.65280644 </i>
   </energy>
  </scstep>
  <scstep>
   <time name="dav">    2.21    2.23</time>
   <time name="total">    3.02    3.05</time>
   <energy>
    <i name="e_fr_energy">   -845.65291950 </i>
    <i name="e_wo_entrp">   -845.65291950 </i>
    <i name="e_0_energy">   -845.65291950 </i>
   </energy>
  </scstep>
  <scstep>
   <time name="dav">    2.23    2.25</time>
   <time name="total">    3.04    3.08</time>
   <energy>
    <i name="e_fr_energy">   -845.65299849 </i>
    <i name="e_wo_entrp">   -845.65299849 </i>
    <i name="e_0_energy">   -845.65299849 </i>
   </energy>
  </scstep>
  <scstep>
   <time name="dav">    2.30    2.32</time>
   <time name="total">    3.11    3.15</time>
   <energy>
    <i name="e_fr_energy">   -845.65303675 </i>
    <i name="e_wo_entrp">   -845.65303675 </i>
    <i name="e_0_energy">   -845.65303675 </i>
   </energy>
  </scstep>
  <scstep>
   <time name="dav">    2.21    2.22</time>
   <time name="total">    3.02    3.05</time>
   <energy>
    <i name="e_fr_energy">   -845.65305499 </i>
    <i name="e_wo_entrp">   -845.65305499 </i>
    <i name="e_0_energy">   -845.65305499 </i>
   </energy>
  </scstep>
  <scstep>
   <time name="dav">    2.25    2.27</time>
   <time name="total">    3.05    3.09</time>
   <energy>
    <i name="e_fr_energy">   -845.65307146 </i>
    <i name="e_wo_entrp">   -845.65307146 </i>
    <i name="e_0_energy">   -845.65307146 </i>
   </energy>
  </scstep>
  <scstep>
   <time name="dav">    2.18    2.20</time>
   <time name="total">    3.00    3.03</time>
   <energy>
    <i name="e_fr_energy">   -845.65307485 </i>
    <i name="e_wo_entrp">   -845.65307485 </i>
    <i name="e_0_energy">   -845.65307485 </i>
   </energy>
  </scstep>
  <scstep>
   <time name="dav">    1.96    1.98</time>
   <time name="total">    2.78    2.80</time>
   <energy>
    <i name="e_fr_energy">   -845.65307613 </i>
    <i name="e_wo_entrp">   -845.65307613 </i>
    <i name="e_0_energy">   -845.65307613 </i>
   </energy>
  </scstep>
  <scstep>
   <time name="dav">    1.76    1.77</time>
   <time name="total">    2.58    2.61</time>
   <energy>
    <i name="e_fr_energy">   -845.65307641 </i>
    <i name="e_wo_entrp">   -845.65307641 </i>
    <i name="e_0_energy">   -845.65307641 </i>
   </energy>
  </scstep>
  <scstep>
   <time name="dav">    1.69    1.71</time>
   <time name="total">    2.51    2.54</time>
   <energy>
    <i name="e_fr_energy">   -845.65307651 </i>
    <i name="e_wo_entrp">   -845.65307651 </i>
    <i name="e_0_energy">   -845.65307651 </i>
   </energy>
  </scstep>
  <scstep>
   <time name="dav">    1.67    1.68</time>
   <time name="total">    2.50    2.53</time>
   <energy>
    <i name="e_fr_energy">   -845.65307656 </i>
    <i name="e_wo_entrp">   -845.65307656 </i>
    <i name="e_0_energy">   -845.65307656 </i>
   </energy>
  </scstep>
  <scstep>
   <time name="dav">    1.69    1.71</time>
   <time name="total">    2.52    2.55</time>
   <energy>
    <i name="e_fr_energy">   -845.65307660 </i>
    <i name="e_wo_entrp">   -845.65307660 </i>
    <i name="e_0_energy">   -845.65307660 </i>
   </energy>
  </scstep>
  <scstep>
   <time name="dav">    1.80    1.82</time>
   <time name="total">    2.17    2.20</time>
   <energy>
    <i name="alphaZ">    156.50993408 </i>
    <i name="ewald">  58206.80877413 </i>
    <i name="hartreedc"> -72314.31631063 </i>
    <i name="XCdc">   1369.72420263 </i>
    <i name="pawpsdc">  44018.91418628 </i>
    <i name="pawaedc"> -44054.25610280 </i>
    <i name="eentropy">     -0.00000000 </i>
    <i name="bandstr">  -4489.97656169 </i>
    <i name="atom">  16260.93880140 </i>
    <i name="e_fr_energy">   -845.65307660 </i>
    <i name="e_wo_entrp">   -845.65307660 </i>
    <i name="e_0_energy">   -845.65307660 </i>
   </energy>
  </scstep>
  <structure>
   <crystal>
    <varray name="basis" >
     <v>      17.59966831       0.00000000       0.00000000 </v>
     <v>      -8.79983416      15.24175986       0.00000000 </v>
     <v>       0.00000000       0.00000000      19.92151445 </v>
    </varray>
    <i name="volume">   5343.94461817 </i>
    <varray name="rec_basis" >
     <v>       0.05681925       0.03280461       0.00000000 </v>
     <v>       0.00000000       0.06560922       0.00000000 </v>
     <v>       0.00000000       0.00000000       0.05019699 </v>
    </varray>
   </crystal>
   <varray name="positions" >
    <v>       0.99943010       0.00005992       0.50000000 </v>
    <v>       0.14164706       0.99871895       0.50000000 </v>
    <v>       0.28492260       0.99841663       0.50000000 </v>
    <v>       0.42850047       0.99871895       0.50000000 </v>
    <v>       0.57205839       0.00005992       0.50000000 </v>
    <v>       0.71530655       0.00214292       0.50000000 </v>
    <v>       0.85826494       0.00214292       0.50000000 </v>
    <v>       0.00080792       0.14408264       0.50000000 </v>
    <v>       0.14259355       0.14244783       0.50000000 </v>
    <v>       0.28470221       0.14112972       0.50000000 </v>
    <v>       0.42785608       0.14112972       0.50000000 </v>
    <v>       0.57128286       0.14244783       0.50000000 </v>
    <v>       0.71470329       0.14408264       0.50000000 </v>
    <v>       0.85805263       0.14467669       0.50000000 </v>
    <v>       0.00095476       0.28713011       0.50000000 </v>
    <v>       0.14372552       0.28645370       0.50000000 </v>
    <v>       0.28540977       0.28469374       0.50000000 </v>
    <v>       0.42724431       0.28306005       0.50000000 </v>
    <v>       0.57071254       0.28469374       0.50000000 </v>
    <v>       0.71415674       0.28645370       0.50000000 </v>
    <v>       0.85760392       0.28713011       0.50000000 </v>
    <v>       0.00054479       0.42966101       0.50000000 </v>
    <v>       0.14422690       0.42957551       0.50000000 </v>
    <v>       0.28730213       0.42918005       0.50000000 </v>
    <v>       0.42797654       0.42569726       0.50000000 </v>
    <v>       0.56914930       0.42569726       0.50000000 </v>
    <v>       0.71330650       0.42918005       0.50000000 </v>
    <v>       0.85677719       0.42957551       0.50000000 </v>
    <v>       0.99928255       0.57181462       0.50000000 </v>
    <v>       0.14396064       0.57181462       0.50000000 </v>
    <v>       0.28862787       0.57181625       0.50000000 </v>
    <v>       0.43313209       0.57215564       0.50000000 </v>
    <v>       0.71045212       0.57215564       0.50000000 </v>
    <v>       0.85461695       0.57181625       0.50000000 </v>
    <v>       0.99707234       0.71370518       0.50000000 </v>
    <v>       0.14255519       0.71368182       0.50000000 </v>
    <v>       0.28806142       0.71370518       0.50000000 </v>
    <v>       0.43464191       0.71382540       0.50000000 </v>
    <v>       0.58510826       0.71626937       0.50000000 </v>
    <v>       0.70258968       0.71626937       0.50000000 </v>
    <v>       0.85061206       0.71382540       0.50000000 </v>
    <v>       0.99777175       0.85613493       0.50000000 </v>
    <v>       0.14160898       0.85591288       0.50000000 </v>
    <v>       0.28573247       0.85591288       0.50000000 </v>
    <v>       0.42979175       0.85613493       0.50000000 </v>
    <v>       0.57342541       0.85758690       0.50000000 </v>
    <v>       0.71640633       0.86138410       0.50000000 </v>
    <v>       0.85559006       0.85758690       0.50000000 </v>
    <v>       0.04754270       0.09604608       0.50000000 </v>
    <v>       0.18957833       0.09405657       0.50000000 </v>
    <v>       0.33254182       0.09365506       0.50000000 </v>
    <v>       0.47590681       0.09405657       0.50000000 </v>
    <v>       0.61936376       0.09547788       0.50000000 </v>
    <v>       0.76280004       0.09719274       0.50000000 </v>
    <v>       0.90582126       0.09719274       0.50000000 </v>
    <v>       0.04854983       0.23934281       0.50000000 </v>
    <v>       0.19048138       0.23782962       0.50000000 </v>
    <v>       0.33234878       0.23634667       0.50000000 </v>
    <v>       0.47542646       0.23634667       0.50000000 </v>
    <v>       0.61877681       0.23782962       0.50000000 </v>
    <v>       0.76222155       0.23934281       0.50000000 </v>
    <v>       0.90562797       0.23982737       0.50000000 </v>
    <v>       0.04871288       0.38232824       0.50000000 </v>
    <v>       0.19188940       0.38184213       0.50000000 </v>
    <v>       0.33352206       0.38013969       0.50000000 </v>
    <v>       0.47472270       0.37801683       0.50000000 </v>
    <v>       0.61804620       0.38013969       0.50000000 </v>
    <v>       0.76138130       0.38184213       0.50000000 </v>
    <v>       0.90504393       0.38232824       0.50000000 </v>
    <v>       0.04810654       0.52478452       0.50000000 </v>
    <v>       0.19263929       0.52476864       0.50000000 </v>
    <v>       0.33696521       0.52455433       0.50000000 </v>
    <v>       0.47833704       0.52146721       0.50000000 </v>
    <v>       0.61455874       0.52146721       0.50000000 </v>
    <v>       0.75901769       0.52455433       0.50000000 </v>
    <v>       0.90355792       0.52476864       0.50000000 </v>
    <v>       0.04642473       0.66685228       0.50000000 </v>
    <v>       0.19185612       0.66685228       0.50000000 </v>
    <v>       0.33777931       0.66688794       0.50000000 </v>
    <v>       0.48615700       0.66710760       0.50000000 </v>
    <v>       0.75237918       0.66710760       0.50000000 </v>
    <v>       0.90053720       0.66688794       0.50000000 </v>
    <v>       0.04582562       0.80879365       0.50000000 </v>
    <v>       0.19009580       0.80876303       0.50000000 </v>
    <v>       0.33439660       0.80879365       0.50000000 </v>
    <v>       0.47844872       0.80897069       0.50000000 </v>
    <v>       0.62209487       0.81129474       0.50000000 </v>
    <v>       0.76062845       0.81129474       0.50000000 </v>
    <v>       0.90195054       0.80897069       0.50000000 </v>
    <v>       0.04629157       0.95154386       0.50000000 </v>
    <v>       0.18948291       0.95113037       0.50000000 </v>
    <v>       0.33307603       0.95113037       0.50000000 </v>
    <v>       0.47668087       0.95154386       0.50000000 </v>
    <v>       0.62015751       0.95313740       0.50000000 </v>
    <v>       0.76355772       0.95568687       0.50000000 </v>
    <v>       0.90440847       0.95313740       0.50000000 </v>
    <v>       0.56830873       0.56518888       0.50000000 </v>
   </varray>
  </structure>
  <varray name="forces" >
   <v>      -0.08040221       0.15108364      -0.00000000 </v>
   <v>      -0.00891852      -0.00529497       0.00000000 </v>
   <v>       0.00394525      -0.01126502      -0.00000000 </v>
   <v>       0.02358216      -0.00899544      -0.00000000 </v>
   <v>       0.04047092      -0.02556643       0.00000000 </v>
   <v>      -0.03388267      -0.04612406      -0.00000000 </v>
   <v>       0.02288222      -0.03053025       0.00000000 </v>
   <v>      -0.15090845       0.10478246      -0.00000000 </v>
   <v>      -0.06888405       0.04391597      -0.00000000 </v>
   <v>      -0.00507740      -0.02543189       0.00000000 </v>
   <v>       0.00966084      -0.03177325       0.00000000 </v>
   <v>       0.02856743      -0.02505390       0.00000000 </v>
   <v>       0.00800089      -0.02671282      -0.00000000 </v>
   <v>       0.00745737      -0.04358341       0.00000000 </v>
   <v>       0.00460402      -0.03280026       0.00000000 </v>
   <v>      -0.00583226      -0.05327652      -0.00000000 </v>
   <v>      -0.03862671      -0.00069944       0.00000000 </v>
   <v>      -0.00014014      -0.09344606      -0.00000000 </v>
   <v>       0.03151697      -0.00275844      -0.00000000 </v>
   <v>      -0.00342162      -0.04520552      -0.00000000 </v>
   <v>       0.01289575      -0.03159732      -0.00000000 </v>
   <v>       0.00319821       0.00461264       0.00000000 </v>
   <v>      -0.02520198      -0.00516815      -0.00000000 </v>
   <v>       0.05379302      -0.14106492      -0.00000000 </v>
   <v>      -0.11438808      -0.20090164       0.00000000 </v>
   <v>       0.11165643      -0.20071441      -0.00000000 </v>
   <v>      -0.05656766      -0.13985083      -0.00000000 </v>
   <v>       0.02739124      -0.00303923      -0.00000000 </v>
   <v>       0.01837000       0.02639911       0.00000000 </v>
   <v>      -0.01586131       0.02657141       0.00000000 </v>
   <v>      -0.08630040       0.12625941      -0.00000000 </v>
   <v>       0.04898392       0.39543330      -0.00000000 </v>
   <v>      -0.05079061       0.39450455       0.00000000 </v>
   <v>       0.08640051       0.12540578      -0.00000000 </v>
   <v>      -0.00784803       0.01828779      -0.00000000 </v>
   <v>       0.00146088       0.02566204      -0.00000000 </v>
   <v>       0.00909675       0.02118598       0.00000000 </v>
   <v>       0.08610464       0.04249618      -0.00000000 </v>
   <v>       1.36356923       1.25020071       0.00000000 </v>
   <v>      -1.36497991       1.24923891      -0.00000000 </v>
   <v>      -0.08683024       0.03831117      -0.00000000 </v>
   <v>      -0.05048790      -0.02078266       0.00000000 </v>
   <v>      -0.00940364      -0.00669743      -0.00000000 </v>
   <v>       0.01465491      -0.00481054       0.00000000 </v>
   <v>       0.04729802      -0.00767330      -0.00000000 </v>
   <v>       0.15023525       0.03726876       0.00000000 </v>
   <v>      -0.00282025      -0.25050809      -0.00000000 </v>
   <v>      -0.15300228       0.02912393      -0.00000000 </v>
   <v>       0.30065225      -0.42758865       0.00000000 </v>
   <v>      -0.01623478       0.00517213      -0.00000000 </v>
   <v>      -0.00372121       0.02485473       0.00000000 </v>
   <v>      -0.01234876       0.02254644       0.00000000 </v>
   <v>      -0.02822203       0.03140236       0.00000000 </v>
   <v>      -0.01609976       0.02463534      -0.00000000 </v>
   <v>      -0.00926715       0.01173296      -0.00000000 </v>
   <v>      -0.00899547       0.07437959       0.00000000 </v>
   <v>       0.02086964       0.01667947       0.00000000 </v>
   <v>       0.01799724       0.03170935       0.00000000 </v>
   <v>      -0.01608327       0.03465803      -0.00000000 </v>
   <v>       0.00729407       0.00322796       0.00000000 </v>
   <v>      -0.01908725       0.03562083      -0.00000000 </v>
   <v>      -0.00661333       0.03251075      -0.00000000 </v>
   <v>       0.00755580       0.03231104       0.00000000 </v>
   <v>       0.05047183       0.06587327      -0.00000000 </v>
   <v>      -0.01761951      -0.19792053      -0.00000000 </v>
   <v>       0.00106265       0.11002579       0.00000000 </v>
   <v>       0.02159057      -0.19957745      -0.00000000 </v>
   <v>      -0.04932613       0.06054155       0.00000000 </v>
   <v>      -0.01368950       0.02839190       0.00000000 </v>
   <v>      -0.00169531       0.01191650      -0.00000000 </v>
   <v>       0.02551290      -0.00376286      -0.00000000 </v>
   <v>       0.19151805       0.11488060       0.00000000 </v>
   <v>       1.02437598      -1.56253052       0.00000000 </v>
   <v>      -1.02191932      -1.56300216       0.00000000 </v>
   <v>      -0.19043309       0.11421157       0.00000000 </v>
   <v>      -0.02707294      -0.00492841       0.00000000 </v>
   <v>       0.00812086      -0.03025883      -0.00000000 </v>
   <v>      -0.01100641      -0.03096061       0.00000000 </v>
   <v>      -0.05898135      -0.06489667      -0.00000000 </v>
   <v>      -0.26943500       0.01000327      -0.00000000 </v>
   <v>       0.27159298       0.01162942      -0.00000000 </v>
   <v>       0.05836168      -0.06326480      -0.00000000 </v>
   <v>       0.03304722      -0.00681935       0.00000000 </v>
   <v>      -0.00265867      -0.00922826      -0.00000000 </v>
   <v>      -0.03759257      -0.01202546      -0.00000000 </v>
   <v>      -0.08536857      -0.01311930       0.00000000 </v>
   <v>      -0.88467689       0.24356469       0.00000000 </v>
   <v>       0.89012625       0.24578954      -0.00000000 </v>
   <v>       0.08771664      -0.00724735       0.00000000 </v>
   <v>       0.01235718       0.05826232      -0.00000000 </v>
   <v>       0.00351803      -0.00238690       0.00000000 </v>
   <v>      -0.01252302      -0.00343960       0.00000000 </v>
   <v>      -0.03300129       0.01686752       0.00000000 </v>
   <v>      -0.11114761       0.11776839       0.00000000 </v>
   <v>       0.00229917       0.01211851       0.00000000 </v>
   <v>       0.13478328       0.12919529      -0.00000000 </v>
   <v>      -0.00122458      -0.11894092       0.00000000 </v>
  </varray>
  <varray name="stress" >
   <v>     -10.57401377      -0.01847273       0.00000000 </v>
   <v>      -0.01847271       3.00839909       0.00000000 </v>
   <v>       0.00000000       0.00000000      -0.42556661 </v>
  </varray>
  <energy>
   <i name="e_fr_energy">   -845.65307660 </i>
   <i name="e_wo_entrp">   -845.65307660 </i>
   <i name="e_0_energy">     -0.00000000 </i>
  </energy>
  <time name="totalsc">  104.20  106.14</time>
  <eigenvalues>
   <array>
    <dimension dim="1">band</dimension>
    <dimension dim="2">kpoint</dimension>
    <dimension dim="3">spin</dimension>
    <field>eigene</field>
    <field>occ</field>
    <set>
     <set comment="spin 1">
      <set comment="kpoint 1">
       <r>  -22.5407    1.0000 </r>
       <r>  -22.0197    1.0000 </r>
       <r>  -21.7720    1.0000 </r>
       <r>  -21.7439    1.0000 </r>
       <r>  -21.6965    1.0000 </r>
       <r>  -21.6558    1.0000 </r>
       <r>  -21.6174    1.0000 </r>
       <r>  -21.2363    1.0000 </r>
       <r>  -21.0699    1.0000 </r>
       <r>  -21.0043    1.0000 </r>
       <r>  -20.9695    1.0000 </r>
       <r>  -20.9256    1.0000 </r>
       <r>  -20.8766    1.0000 </r>
       <r>  -20.7439    1.0000 </r>
       <r>  -20.7037    1.0000 </r>
       <r>  -20.6642    1.0000 </r>
       <r>  -20.5940    1.0000 </r>
       <r>  -20.5681    1.0000 </r>
       <r>  -20.4277    1.0000 </r>
       <r>  -19.9807    1.0000 </r>
       <r>  -19.9244    1.0000 </r>
       <r>  -19.8041    1.0000 </r>
       <r>  -19.7622    1.0000 </r>
       <r>  -19.7378    1.0000 </r>
       <r>  -19.7352    1.0000 </r>
       <r>  -19.7063    1.0000 </r>
       <r>  -19.6989    1.0000 </r>
       <r>  -19.6450    1.0000 </r>
       <r>  -19.6371    1.0000 </r>
       <r>  -19.6299    1.0000 </r>
       <r>  -19.4938    1.0000 </r>
       <r>  -19.4080    1.0000 </r>
       <r>  -19.3633    1.0000 </r>
       <r>  -19.3561    1.0000 </r>
       <r>  -19.2887    1.0000 </r>
       <r>  -19.2401    1.0000 </r>
       <r>  -19.1076    1.0000 </r>
       <r>  -19.0001    1.0000 </r>
       <r>  -18.9303    1.0000 </r>
       <r>  -18.8762    1.0000 </r>
       <r>  -18.8541    1.0000 </r>
       <r>  -18.8368    1.0000 </r>
       <r>  -18.7670    1.0000 </r>
       <r>  -18.7492    1.0000 </r>
       <r>  -18.7256    1.0000 </r>
       <r>  -18.7147    1.0000 </r>
       <r>  -18.6952    1.0000 </r>
       <r>  -18.4464    1.0000 </r>
       <r>  -14.1402    1.0000 </r>
       <r>  -13.1833    1.0000 </r>
       <r>  -13.1568    1.0000 </r>
       <r>  -13.1085    1.0000 </r>
       <r>  -13.1021    1.0000 </r>
       <r>  -13.0786    1.0000 </r>
       <r>  -13.0172    1.0000 </r>
       <r>  -12.9606    1.0000 </r>
       <r>  -12.9503    1.0000 </r>
       <r>  -12.9346    1.0000 </r>
       <r>  -12.8056    1.0000 </r>
       <r>  -12.7689    1.0000 </r>
       <r>  -12.6016    1.0000 </r>
       <r>  -12.5022    1.0000 </r>
       <r>  -12.4847    1.0000 </r>
       <r>  -12.3791    1.0000 </r>
       <r>  -12.3087    1.0000 </r>
       <r>  -12.2973    1.0000 </r>
       <r>  -12.1757    1.0000 </r>
       <r>  -11.9001    1.0000 </r>
       <r>  -11.8850    1.0000 </r>
       <r>  -11.7697    1.0000 </r>
       <r>  -11.7645    1.0000 </r>
       <r>  -11.7508    1.0000 </r>
       <r>  -11.7410    1.0000 </r>
       <r>  -11.6931    1.0000 </r>
       <r>  -11.6565    1.0000 </r>
       <r>  -11.6326    1.0000 </r>
       <r>  -11.5409    1.0000 </r>
       <r>  -11.4225    1.0000 </r>
       <r>  -11.2009    1.0000 </r>
       <r>  -11.1246    1.0000 </r>
       <r>  -11.0850    1.0000 </r>
       <r>  -11.0600    1.0000 </r>
       <r>  -10.9630    1.0000 </r>
       <r>  -10.9127    1.0000 </r>
       <r>  -10.6833    1.0000 </r>
       <r>  -10.4616    1.0000 </r>
       <r>  -10.4315    1.0000 </r>
       <r>  -10.3496    1.0000 </r>
       <r>  -10.2520    1.0000 </r>
       <r>  -10.2078    1.0000 </r>
       <r>   -9.8898    1.0000 </r>
       <r>   -9.7703    1.0000 </r>
       <r>   -9.7669    1.0000 </r>
       <r>   -9.7241    1.0000 </r>
       <r>   -9.6739    1.0000 </r>
       <r>   -9.5861    1.0000 </r>
       <r>   -9.5424    1.0000 </r>
       <r>   -9.4985    1.0000 </r>
       <r>   -9.4645    1.0000 </r>
       <r>   -9.3518    1.0000 </r>
       <r>   -9.3465    1.0000 </r>
       <r>   -9.2879    1.0000 </r>
       <r>   -9.2610    1.0000 </r>
       <r>   -9.2534    1.0000 </r>
       <r>   -9.2522    1.0000 </r>
       <r>   -9.2409    1.0000 </r>
       <r>   -9.2232    1.0000 </r>
       <r>   -9.2220    1.0000 </r>
       <r>   -9.2090    1.0000 </r>
       <r>   -9.2020    1.0000 </r>
       <r>   -9.1993    1.0000 </r>
       <r>   -9.1988    1.0000 </r>
       <r>   -9.1550    1.0000 </r>
       <r>   -9.1357    1.0000 </r>
       <r>   -9.1127    1.0000 </r>
       <r>   -9.1059    1.0000 </r>
       <r>   -9.1003    1.0000 </r>
       <r>   -9.0437    1.0000 </r>
       <r>   -8.9935    1.0000 </r>
       <r>   -8.8458    1.0000 </r>
       <r>   -8.7939    1.0000 </r>
       <r>   -8.6521    1.0000 </r>
       <r>   -8.5093    1.0000 </r>
       <r>   -8.4814    1.0000 </r>
       <r>   -8.4420    1.0000 </r>
       <r>   -8.3271    1.0000 </r>
       <r>   -8.2237    1.0000 </r>
       <r>   -8.2030    1.0000 </r>
       <r>   -8.1976    1.0000 </r>
       <r>   -8.1711    1.0000 </r>
       <r>   -8.1513    1.0000 </r>
       <r>   -8.1221    1.0000 </r>
       <r>   -8.0388    1.0000 </r>
       <r>   -7.9712    1.0000 </r>
       <r>   -7.9513    1.0000 </r>
       <r>   -7.8718    1.0000 </r>
       <r>   -7.8483    1.0000 </r>
       <r>   -7.8463    1.0000 </r>
       <r>   -7.8003    1.0000 </r>
       <r>   -7.7969    1.0000 </r>
       <r>   -7.7932    1.0000 </r>
       <r>   -7.7381    1.0000 </r>
       <r>   -7.7347    1.0000 </r>
       <r>   -7.7127    1.0000 </r>
       <r>   -7.6776    1.0000 </r>
       <r>   -7.6745    1.0000 </r>
       <r>   -7.6658    1.0000 </r>
       <r>   -7.6377    1.0000 </r>
       <r>   -7.6312    1.0000 </r>
       <r>   -7.4421    1.0000 </r>
       <r>   -7.4366    1.0000 </r>
       <r>   -7.4277    1.0000 </r>
       <r>   -7.3875    1.0000 </r>
       <r>   -7.3596    1.0000 </r>
       <r>   -7.2720    1.0000 </r>
       <r>   -6.8348    1.0000 </r>
       <r>   -6.7602    1.0000 </r>
       <r>   -6.6190    1.0000 </r>
       <r>   -6.6061    1.0000 </r>
       <r>   -6.5413    1.0000 </r>
       <r>   -6.5345    1.0000 </r>
       <r>   -6.5017    1.0000 </r>
       <r>   -6.4889    1.0000 </r>
       <r>   -6.4577    1.0000 </r>
       <r>   -6.4567    1.0000 </r>
       <r>   -6.4412    1.0000 </r>
       <r>   -6.4388    1.0000 </r>
       <r>   -6.4097    1.0000 </r>
       <r>   -6.4043    1.0000 </r>
       <r>   -6.3603    1.0000 </r>
       <r>   -6.3463    1.0000 </r>
       <r>   -6.3169    1.0000 </r>
       <r>   -6.1109    1.0000 </r>
       <r>   -5.9729    1.0000 </r>
       <r>   -5.9236    1.0000 </r>
       <r>   -5.8858    1.0000 </r>
       <r>   -5.8803    1.0000 </r>
       <r>   -5.8619    1.0000 </r>
       <r>   -5.7813    1.0000 </r>
       <r>   -5.7793    1.0000 </r>
       <r>   -5.5269    1.0000 </r>
       <r>   -5.2205    1.0000 </r>
       <r>   -5.1984    1.0000 </r>
       <r>   -5.1959    1.0000 </r>
       <r>   -5.1409    1.0000 </r>
       <r>   -5.1337    1.0000 </r>
       <r>   -5.1032    1.0000 </r>
       <r>   -5.0011    1.0000 </r>
       <r>   -4.9447    1.0000 </r>
       <r>   -4.9178    1.0000 </r>
       <r>   -4.9053    1.0000 </r>
       <r>   -4.8994    1.0000 </r>
       <r>   -4.7332    1.0000 </r>
       <r>   -1.3162    1.0000 </r>
       <r>   -1.2028    0.0000 </r>
       <r>    0.0585    0.0000 </r>
       <r>    0.2051    0.0000 </r>
       <r>    0.2397    0.0000 </r>
       <r>    0.2596    0.0000 </r>
       <r>    0.2620    0.0000 </r>
       <r>    0.3026    0.0000 </r>
       <r>    0.3046    0.0000 </r>
       <r>    0.3769    0.0000 </r>
       <r>    0.3918    0.0000 </r>
       <r>    0.4371    0.0000 </r>
       <r>    0.4794    0.0000 </r>
       <r>    0.5269    0.0000 </r>
       <r>    0.6103    0.0000 </r>
       <r>    0.7467    0.0000 </r>
       <r>    0.7471    0.0000 </r>
       <r>    0.7816    0.0000 </r>
       <r>    0.8071    0.0000 </r>
       <r>    0.8122    0.0000 </r>
       <r>    0.8285    0.0000 </r>
       <r>    0.8378    0.0000 </r>
       <r>    0.8574    0.0000 </r>
       <r>    0.8717    0.0000 </r>
       <r>    0.9784    0.0000 </r>
       <r>    1.0197    0.0000 </r>
       <r>    1.0602    0.0000 </r>
       <r>    1.1185    0.0000 </r>
       <r>    1.4953    0.0000 </r>
       <r>    1.6733    0.0000 </r>
       <r>    1.6979    0.0000 </r>
       <r>    1.7060    0.0000 </r>
       <r>    1.7244    0.0000 </r>
       <r>    1.7390    0.0000 </r>
       <r>    1.7443    0.0000 </r>
       <r>    1.8054    0.0000 </r>
       <r>    1.8071    0.0000 </r>
       <r>    1.8444    0.0000 </r>
       <r>    1.8494    0.0000 </r>
       <r>    1.8764    0.0000 </r>
       <r>    1.8816    0.0000 </r>
       <r>    1.9071    0.0000 </r>
       <r>    1.9095    0.0000 </r>
       <r>    1.9283    0.0000 </r>
       <r>    1.9822    0.0000 </r>
       <r>    2.0296    0.0000 </r>
       <r>    2.1051    0.0000 </r>
       <r>    2.1079    0.0000 </r>
       <r>    2.1288    0.0000 </r>
       <r>    2.1346    0.0000 </r>
       <r>    2.1403    0.0000 </r>
      </set>
     </set>
    </set>
   </array>
  </eigenvalues>
  <separator name="orbital magnetization" >
   <v name="MAGDIPOLOUT">      0.00000000      0.00000000      0.00000000</v>
  </separator>
  <dos>
   <i name="efermi">     -1.25229288 </i>
   <total>
    <array>
     <dimension dim="1">gridpoints</dimension>
     <dimension dim="2">spin</dimension>
     <field>energy</field>
     <field>total</field>
     <field>integrated</field>
     <set>
      <set comment="spin 1">
       <r>   -23.7747     0.0000     0.0000 </r>
       <r>   -23.6842     0.0000     0.0000 </r>
       <r>   -23.5937     0.0000     0.0000 </r>
       <r>   -23.5032     0.0000     0.0000 </r>
       <r>   -23.4127     0.0000     0.0000 </r>
       <r>   -23.3222     0.0000     0.0000 </r>
       <r>   -23.2317     0.0000     0.0000 </r>
       <r>   -23.1413     0.0000     0.0000 </r>
       <r>   -23.0508     0.0000     0.0000 </r>
       <r>   -22.9603     0.0000     0.0000 </r>
       <r>   -22.8698     0.0000     0.0000 </r>
       <r>   -22.7793     0.0000     0.0000 </r>
       <r>   -22.6888     0.0000     0.0000 </r>
       <r>   -22.5983     0.0000     0.0000 </r>
       <r>   -22.5078    22.1001     2.0000 </r>
       <r>   -22.4173     0.0000     2.0000 </r>
       <r>   -22.3268     0.0000     2.0000 </r>
       <r>   -22.2363     0.0000     2.0000 </r>
       <r>   -22.1458     0.0000     2.0000 </r>
       <r>   -22.0553     0.0000     2.0000 </r>
       <r>   -21.9648    22.1002     4.0000 </r>
       <r>   -21.8743     0.0000     4.0000 </r>
       <r>   -21.7838     1.0459     4.0947 </r>
       <r>   -21.6933    58.0280     9.3460 </r>
       <r>   -21.6028    43.7689    13.9610 </r>
       <r>   -21.5123     0.0000    14.0000 </r>
       <r>   -21.4218     0.0000    14.0000 </r>
       <r>   -21.3313     0.0000    14.0000 </r>
       <r>   -21.2408     5.7516    14.5205 </r>
       <r>   -21.1503     0.0000    16.0000 </r>
       <r>   -21.0598    20.4118    17.8472 </r>
       <r>   -20.9693    33.3704    21.0199 </r>
       <r>   -20.8788    30.3675    24.7482 </r>
       <r>   -20.7883     0.0000    26.0000 </r>
       <r>   -20.6978    39.7134    29.5939 </r>
       <r>   -20.6073    22.7551    32.0593 </r>
       <r>   -20.5168    43.5454    36.0000 </r>
       <r>   -20.4263    12.7333    37.1523 </r>
       <r>   -20.3358     0.0000    38.0000 </r>
       <r>   -20.2453     0.0000    38.0000 </r>
       <r>   -20.1549     0.0000    38.0000 </r>
       <r>   -20.0644     0.0000    38.0000 </r>
       <r>   -19.9739    18.4409    39.6688 </r>
       <r>   -19.8834    22.1002    42.0000 </r>
       <r>   -19.7929    20.8714    43.8888 </r>
       <r>   -19.7024    88.9365    52.0485 </r>
       <r>   -19.6119    66.1761    59.9887 </r>
       <r>   -19.5214     0.0011    60.0001 </r>
       <r>   -19.4309    22.1123    62.0012 </r>
       <r>   -19.3404    65.9811    67.9723 </r>
       <r>   -19.2499    23.9413    70.1666 </r>
       <r>   -19.1594     0.0000    72.0000 </r>
       <r>   -19.0689    22.1002    74.0000 </r>
       <r>   -18.9784    22.0763    75.9978 </r>
       <r>   -18.8879    23.1890    78.0985 </r>
       <r>   -18.7974    65.2119    84.0000 </r>
       <r>   -18.7069    86.4418    91.8227 </r>
       <r>   -18.6164    21.0055    94.0000 </r>
       <r>   -18.5259     0.0000    94.0000 </r>
       <r>   -18.4354    20.7640    95.8791 </r>
       <r>   -18.3449     0.0000    96.0000 </r>
       <r>   -18.2544     0.0000    96.0000 </r>
       <r>   -18.1639     0.0000    96.0000 </r>
       <r>   -18.0734     0.0000    96.0000 </r>
       <r>   -17.9829     0.0000    96.0000 </r>
       <r>   -17.8924     0.0000    96.0000 </r>
       <r>   -17.8019     0.0000    96.0000 </r>
       <r>   -17.7114     0.0000    96.0000 </r>
       <r>   -17.6209     0.0000    96.0000 </r>
       <r>   -17.5304     0.0000    96.0000 </r>
       <r>   -17.4399     0.0000    96.0000 </r>
       <r>   -17.3494     0.0000    96.0000 </r>
       <r>   -17.2589     0.0000    96.0000 </r>
       <r>   -17.1684     0.0000    96.0000 </r>
       <r>   -17.0780     0.0000    96.0000 </r>
       <r>   -16.9875     0.0000    96.0000 </r>
       <r>   -16.8970     0.0000    96.0000 </r>
       <r>   -16.8065     0.0000    96.0000 </r>
       <r>   -16.7160     0.0000    96.0000 </r>
       <r>   -16.6255     0.0000    96.0000 </r>
       <r>   -16.5350     0.0000    96.0000 </r>
       <r>   -16.4445     0.0000    96.0000 </r>
       <r>   -16.3540     0.0000    96.0000 </r>
       <r>   -16.2635     0.0000    96.0000 </r>
       <r>   -16.1730     0.0000    96.0000 </r>
       <r>   -16.0825     0.0000    96.0000 </r>
       <r>   -15.9920     0.0000    96.0000 </r>
       <r>   -15.9015     0.0000    96.0000 </r>
       <r>   -15.8110     0.0000    96.0000 </r>
       <r>   -15.7205     0.0000    96.0000 </r>
       <r>   -15.6300     0.0000    96.0000 </r>
       <r>   -15.5395     0.0000    96.0000 </r>
       <r>   -15.4490     0.0000    96.0000 </r>
       <r>   -15.3585     0.0000    96.0000 </r>
       <r>   -15.2680     0.0000    96.0000 </r>
       <r>   -15.1775     0.0000    96.0000 </r>
       <r>   -15.0870     0.0000    96.0000 </r>
       <r>   -14.9965     0.0000    96.0000 </r>
       <r>   -14.9060     0.0000    96.0000 </r>
       <r>   -14.8155     0.0000    96.0000 </r>
       <r>   -14.7250     0.0000    96.0000 </r>
       <r>   -14.6345     0.0000    96.0000 </r>
       <r>   -14.5440     0.0000    96.0000 </r>
       <r>   -14.4535     0.0000    96.0000 </r>
       <r>   -14.3630     0.0000    96.0000 </r>
       <r>   -14.2725     0.0000    96.0000 </r>
       <r>   -14.1820     0.0000    96.0000 </r>
       <r>   -14.0916    22.1002    98.0000 </r>
       <r>   -14.0011     0.0000    98.0000 </r>
       <r>   -13.9106     0.0000    98.0000 </r>
       <r>   -13.8201     0.0000    98.0000 </r>
       <r>   -13.7296     0.0000    98.0000 </r>
       <r>   -13.6391     0.0000    98.0000 </r>
       <r>   -13.5486     0.0000    98.0000 </r>
       <r>   -13.4581     0.0000    98.0000 </r>
       <r>   -13.3676     0.0000    98.0000 </r>
       <r>   -13.2771     0.0000    98.0000 </r>
       <r>   -13.1866     7.1034    98.6428 </r>
       <r>   -13.0961    61.1742   105.5361 </r>
       <r>   -13.0056    42.9530   109.9006 </r>
       <r>   -12.9151    66.2366   115.9942 </r>
       <r>   -12.8246     0.0803   116.0073 </r>
       <r>   -12.7341    44.1201   120.0000 </r>
       <r>   -12.6436     0.0000   120.0000 </r>
       <r>   -12.5531    22.1002   122.0000 </r>
       <r>   -12.4626    44.1811   125.9983 </r>
       <r>   -12.3721    18.5567   127.6793 </r>
       <r>   -12.2816    43.9050   131.9733 </r>
       <r>   -12.1911     0.3227   132.0292 </r>
       <r>   -12.1006    21.7775   134.0000 </r>
       <r>   -12.0101     0.0000   134.0000 </r>
       <r>   -11.9196     0.0630   134.0057 </r>
       <r>   -11.8291    44.1373   138.0000 </r>
       <r>   -11.7386    79.3344   145.1795 </r>
       <r>   -11.6481    41.9178   149.7934 </r>
       <r>   -11.5576    21.9886   152.0177 </r>
       <r>   -11.4671    21.9050   154.0000 </r>
       <r>   -11.3766    22.1002   156.0000 </r>
       <r>   -11.2861     0.0000   156.0000 </r>
       <r>   -11.1956    17.0481   157.5428 </r>
       <r>   -11.1052    22.0820   159.9984 </r>
       <r>   -11.0147    44.1514   164.0000 </r>
       <r>   -10.9242    23.2618   166.1051 </r>
       <r>   -10.8337    20.9386   168.0000 </r>
       <r>   -10.7432     0.0000   168.0000 </r>
       <r>   -10.6527    22.1000   170.0000 </r>
       <r>   -10.5622     0.0000   170.0000 </r>
       <r>   -10.4717     1.7236   170.1560 </r>
       <r>   -10.3812    22.1003   174.0000 </r>
       <r>   -10.2907    22.1001   176.0000 </r>
       <r>   -10.2002    41.1163   179.7209 </r>
       <r>   -10.1097     0.0000   180.0000 </r>
       <r>   -10.0192     0.0000   180.0000 </r>
       <r>    -9.9287     0.0000   180.0000 </r>
       <r>    -9.8382    22.1002   182.0000 </r>
       <r>    -9.7477    44.1222   185.9929 </r>
       <r>    -9.6572    43.9874   189.9816 </r>
       <r>    -9.5667    22.0400   191.9946 </r>
       <r>    -9.4762    45.2471   196.0953 </r>
       <r>    -9.3857    21.0290   198.0000 </r>
       <r>    -9.2952    47.5000   202.2986 </r>
       <r>    -9.2047   165.4939   218.9767 </r>
       <r>    -9.1142    56.5431   229.1170 </r>
       <r>    -9.0237    43.6109   235.9954 </r>
       <r>    -8.9332    22.1000   238.0000 </r>
       <r>    -8.8427    14.7473   239.3346 </r>
       <r>    -8.7522    22.1002   242.0000 </r>
       <r>    -8.6617     1.9351   242.1751 </r>
       <r>    -8.5712     0.0000   244.0000 </r>
       <r>    -8.4807    33.9339   247.0709 </r>
       <r>    -8.3902    22.1002   250.0000 </r>
       <r>    -8.2997    22.0989   251.9999 </r>
       <r>    -8.2092    26.8934   254.4338 </r>
       <r>    -8.1188    80.2196   263.3603 </r>
       <r>    -8.0283    20.6099   265.8651 </r>
       <r>    -7.9378    43.5953   269.9452 </r>
       <r>    -7.8473    44.2251   274.0022 </r>
       <r>    -7.7568    66.4124   282.0101 </r>
       <r>    -7.6663   117.0223   292.6003 </r>
       <r>    -7.5758    44.1998   298.0000 </r>
       <r>    -7.4853     0.0000   298.0000 </r>
       <r>    -7.3948    69.6221   304.3006 </r>
       <r>    -7.3043    22.1002   308.0000 </r>
       <r>    -7.2138    22.1001   310.0000 </r>
       <r>    -7.1233     0.0000   310.0000 </r>
       <r>    -7.0328     0.0000   310.0000 </r>
       <r>    -6.9423     0.0000   310.0000 </r>
       <r>    -6.8518     0.1817   310.0164 </r>
       <r>    -6.7613    31.6172   312.8777 </r>
       <r>    -6.6708     0.0000   314.0000 </r>
       <r>    -6.5803    44.1974   317.9997 </r>
       <r>    -6.4898    75.2576   324.8106 </r>
       <r>    -6.3993   125.7428   337.3794 </r>
       <r>    -6.3088    63.5282   343.7491 </r>
       <r>    -6.2183     0.0000   344.0000 </r>
       <r>    -6.1278     0.1884   344.0170 </r>
       <r>    -6.0373    21.9118   346.0000 </r>
       <r>    -5.9468    22.1088   348.0008 </r>
       <r>    -5.8563    83.6628   355.5722 </r>
       <r>    -5.7658    43.2543   359.9144 </r>
       <r>    -5.6753     0.0000   360.0000 </r>
       <r>    -5.5848     0.0000   360.0000 </r>
       <r>    -5.4943    22.1001   362.0000 </r>
       <r>    -5.4038     0.0000   362.0000 </r>
       <r>    -5.3133     0.0000   362.0000 </r>
       <r>    -5.2228     8.1540   362.7379 </r>
       <r>    -5.1324    76.5508   370.9283 </r>
       <r>    -5.0419    22.0998   374.0000 </r>
       <r>    -4.9514    25.9405   376.3475 </r>
       <r>    -4.8609    66.3005   384.0000 </r>
       <r>    -4.7704     0.0000   384.0000 </r>
       <r>    -4.6799    22.1002   386.0000 </r>
       <r>    -4.5894     0.0000   386.0000 </r>
       <r>    -4.4989     0.0000   386.0000 </r>
       <r>    -4.4084     0.0000   386.0000 </r>
       <r>    -4.3179     0.0000   386.0000 </r>
       <r>    -4.2274     0.0000   386.0000 </r>
       <r>    -4.1369     0.0000   386.0000 </r>
       <r>    -4.0464     0.0000   386.0000 </r>
       <r>    -3.9559     0.0000   386.0000 </r>
       <r>    -3.8654     0.0000   386.0000 </r>
       <r>    -3.7749     0.0000   386.0000 </r>
       <r>    -3.6844     0.0000   386.0000 </r>
       <r>    -3.5939     0.0000   386.0000 </r>
       <r>    -3.5034     0.0000   386.0000 </r>
       <r>    -3.4129     0.0000   386.0000 </r>
       <r>    -3.3224     0.0000   386.0000 </r>
       <r>    -3.2319     0.0000   386.0000 </r>
       <r>    -3.1414     0.0000   386.0000 </r>
       <r>    -3.0509     0.0000   386.0000 </r>
       <r>    -2.9604     0.0000   386.0000 </r>
       <r>    -2.8699     0.0000   386.0000 </r>
       <r>    -2.7794     0.0000   386.0000 </r>
       <r>    -2.6889     0.0000   386.0000 </r>
       <r>    -2.5984     0.0000   386.0000 </r>
       <r>    -2.5079     0.0000   386.0000 </r>
       <r>    -2.4174     0.0000   386.0000 </r>
       <r>    -2.3269     0.0000   386.0000 </r>
       <r>    -2.2364     0.0000   386.0000 </r>
       <r>    -2.1460     0.0000   386.0000 </r>
       <r>    -2.0555     0.0000   386.0000 </r>
       <r>    -1.9650     0.0000   386.0000 </r>
       <r>    -1.8745     0.0000   386.0000 </r>
       <r>    -1.7840     0.0000   386.0000 </r>
       <r>    -1.6935     0.0000   386.0000 </r>
       <r>    -1.6030     0.0000   386.0000 </r>
       <r>    -1.5125     0.0000   386.0000 </r>
       <r>    -1.4220     0.0000   386.0000 </r>
       <r>    -1.3315     0.3350   386.0303 </r>
       <r>    -1.2410    21.7651   388.0000 </r>
       <r>    -1.1505    22.1002   390.0000 </r>
       <r>    -1.0600     0.0000   390.0000 </r>
       <r>    -0.9695     0.0000   390.0000 </r>
       <r>    -0.8790     0.0000   390.0000 </r>
       <r>    -0.7885     0.0000   390.0000 </r>
       <r>    -0.6980     0.0000   390.0000 </r>
       <r>    -0.6075     0.0000   390.0000 </r>
       <r>    -0.5170     0.0000   390.0000 </r>
       <r>    -0.4265     0.0000   390.0000 </r>
       <r>    -0.3360     0.0000   390.0000 </r>
       <r>    -0.2455     0.0000   390.0000 </r>
       <r>    -0.1550     0.0000   390.0000 </r>
       <r>    -0.0645     0.0000   390.0000 </r>
       <r>     0.0260     0.0000   390.0000 </r>
       <r>     0.1165    22.1001   392.0000 </r>
       <r>     0.2070    13.3769   393.2106 </r>
       <r>     0.2975    74.9037   400.7786 </r>
       <r>     0.3880    27.2849   406.4692 </r>
       <r>     0.4785    31.9551   410.8918 </r>
       <r>     0.5690    22.1002   414.0000 </r>
       <r>     0.6595    22.1002   416.0000 </r>
       <r>     0.7500    29.5502   418.6742 </r>
       <r>     0.8404   101.8458   429.2167 </r>
       <r>     0.9309    44.0201   434.0000 </r>
       <r>     1.0214    35.2977   437.1943 </r>
       <r>     1.1119    26.0275   440.3554 </r>
       <r>     1.2024     0.0000   442.0000 </r>
       <r>     1.2929     0.0000   442.0000 </r>
       <r>     1.3834     0.0000   442.0000 </r>
       <r>     1.4739     0.0277   442.0025 </r>
       <r>     1.5644    22.0725   444.0000 </r>
       <r>     1.6549     0.1030   444.0093 </r>
       <r>     1.7454   118.8334   454.7634 </r>
       <r>     1.8359    47.3853   460.2882 </r>
       <r>     1.9264   118.3079   472.7638 </r>
       <r>     2.0169    22.9010   476.0725 </r>
       <r>     2.1074    45.6426   480.2030 </r>
       <r>     2.1979    66.2722   488.0000 </r>
       <r>     2.2884     0.0000   488.0000 </r>
       <r>     2.3789     0.0000   488.0000 </r>
       <r>     2.4694     0.0000   488.0000 </r>
       <r>     2.5599     0.0000   488.0000 </r>
       <r>     2.6504     0.0000   488.0000 </r>
       <r>     2.7409     0.0000   488.0000 </r>
       <r>     2.8314     0.0000   488.0000 </r>
       <r>     2.9219     0.0000   488.0000 </r>
       <r>     3.0124     0.0000   488.0000 </r>
       <r>     3.1029     0.0000   488.0000 </r>
       <r>     3.1934     0.0000   488.0000 </r>
       <r>     3.2839     0.0000   488.0000 </r>
       <r>     3.3744     0.0000   488.0000 </r>
      </set>
     </set>
    </array>
   </total>
  </dos>
 </calculation>
 <structure name="finalpos" >
  <crystal>
   <varray name="basis" >
    <v>      17.59966831       0.00000000       0.00000000 </v>
    <v>      -8.79983416      15.24175986       0.00000000 </v>
    <v>       0.00000000       0.00000000      19.92151445 </v>
   </varray>
   <i name="volume">   5343.94461817 </i>
   <varray name="rec_basis" >
    <v>       0.05681925       0.03280461       0.00000000 </v>
    <v>       0.00000000       0.06560922       0.00000000 </v>
    <v>       0.00000000       0.00000000       0.05019699 </v>
   </varray>
  </crystal>
  <varray name="positions" >
   <v>       0.99943010       0.00005992       0.50000000 </v>
   <v>       0.14164706       0.99871895       0.50000000 </v>
   <v>       0.28492260       0.99841663       0.50000000 </v>
   <v>       0.42850047       0.99871895       0.50000000 </v>
   <v>       0.57205839       0.00005992       0.50000000 </v>
   <v>       0.71530655       0.00214292       0.50000000 </v>
   <v>       0.85826494       0.00214292       0.50000000 </v>
   <v>       0.00080792       0.14408264       0.50000000 </v>
   <v>       0.14259355       0.14244783       0.50000000 </v>
   <v>       0.28470221       0.14112972       0.50000000 </v>
   <v>       0.42785608       0.14112972       0.50000000 </v>
   <v>       0.57128286       0.14244783       0.50000000 </v>
   <v>       0.71470329       0.14408264       0.50000000 </v>
   <v>       0.85805263       0.14467669       0.50000000 </v>
   <v>       0.00095476       0.28713011       0.50000000 </v>
   <v>       0.14372552       0.28645370       0.50000000 </v>
   <v>       0.28540977       0.28469374       0.50000000 </v>
   <v>       0.42724431       0.28306005       0.50000000 </v>
   <v>       0.57071254       0.28469374       0.50000000 </v>
   <v>       0.71415674       0.28645370       0.50000000 </v>
   <v>       0.85760392       0.28713011       0.50000000 </v>
   <v>       0.00054479       0.42966101       0.50000000 </v>
   <v>       0.14422690       0.42957551       0.50000000 </v>
   <v>       0.28730213       0.42918005       0.50000000 </v>
   <v>       0.42797654       0.42569726       0.50000000 </v>
   <v>       0.56914930       0.42569726       0.50000000 </v>
   <v>       0.71330650       0.42918005       0.50000000 </v>
   <v>       0.85677719       0.42957551       0.50000000 </v>
   <v>       0.99928255       0.57181462       0.50000000 </v>
   <v>       0.14396064       0.57181462       0.50000000 </v>
   <v>       0.28862787       0.57181625       0.50000000 </v>
   <v>       0.43313209       0.57215564       0.50000000 </v>
   <v>       0.71045212       0.57215564       0.50000000 </v>
   <v>       0.85461695       0.57181625       0.50000000 </v>
   <v>       0.99707234       0.71370518       0.50000000 </v>
   <v>       0.14255519       0.71368182       0.50000000 </v>
   <v>       0.28806142       0.71370518       0.50000000 </v>
   <v>       0.43464191       0.71382540       0.50000000 </v>
   <v>       0.58510826       0.71626937       0.50000000 </v>
   <v>       0.70258968       0.71626937       0.50000000 </v>
   <v>       0.85061206       0.71382540       0.50000000 </v>
   <v>       0.99777175       0.85613493       0.50000000 </v>
   <v>       0.14160898       0.85591288       0.50000000 </v>
   <v>       0.28573247       0.85591288       0.50000000 </v>
   <v>       0.42979175       0.85613493       0.50000000 </v>
   <v>       0.57342541       0.85758690       0.50000000 </v>
   <v>       0.71640633       0.86138410       0.50000000 </v>
   <v>       0.85559006       0.85758690       0.50000000 </v>
   <v>       0.04754270       0.09604608       0.50000000 </v>
   <v>       0.18957833       0.09405657       0.50000000 </v>
   <v>       0.33254182       0.09365506       0.50000000 </v>
   <v>       0.47590681       0.09405657       0.50000000 </v>
   <v>       0.61936376       0.09547788       0.50000000 </v>
   <v>       0.76280004       0.09719274       0.50000000 </v>
   <v>       0.90582126       0.09719274       0.50000000 </v>
   <v>       0.04854983       0.23934281       0.50000000 </v>
   <v>       0.19048138       0.23782962       0.50000000 </v>
   <v>       0.33234878       0.23634667       0.50000000 </v>
   <v>       0.47542646       0.23634667       0.50000000 </v>
   <v>       0.61877681       0.23782962       0.50000000 </v>
   <v>       0.76222155       0.23934281       0.50000000 </v>
   <v>       0.90562797       0.23982737       0.50000000 </v>
   <v>       0.04871288       0.38232824       0.50000000 </v>
   <v>       0.19188940       0.38184213       0.50000000 </v>
   <v>       0.33352206       0.38013969       0.50000000 </v>
   <v>       0.47472270       0.37801683       0.50000000 </v>
   <v>       0.61804620       0.38013969       0.50000000 </v>
   <v>       0.76138130       0.38184213       0.50000000 </v>
   <v>       0.90504393       0.38232824       0.50000000 </v>
   <v>       0.04810654       0.52478452       0.50000000 </v>
   <v>       0.19263929       0.52476864       0.50000000 </v>
   <v>       0.33696521       0.52455433       0.50000000 </v>
   <v>       0.47833704       0.52146721       0.50000000 </v>
   <v>       0.61455874       0.52146721       0.50000000 </v>
   <v>       0.75901769       0.52455433       0.50000000 </v>
   <v>       0.90355792       0.52476864       0.50000000 </v>
   <v>       0.04642473       0.66685228       0.50000000 </v>
   <v>       0.19185612       0.66685228       0.50000000 </v>
   <v>       0.33777931       0.66688794       0.50000000 </v>
   <v>       0.48615700       0.66710760       0.50000000 </v>
   <v>       0.75237918       0.66710760       0.50000000 </v>
   <v>       0.90053720       0.66688794       0.50000000 </v>
   <v>       0.04582562       0.80879365       0.50000000 </v>
   <v>       0.19009580       0.80876303       0.50000000 </v>
   <v>       0.33439660       0.80879365       0.50000000 </v>
   <v>       0.47844872       0.80897069       0.50000000 </v>
   <v>       0.62209487       0.81129474       0.50000000 </v>
   <v>       0.76062845       0.81129474       0.50000000 </v>
   <v>       0.90195054       0.80897069       0.50000000 </v>
   <v>       0.04629157       0.95154386       0.50000000 </v>
   <v>       0.18948291       0.95113037       0.50000000 </v>
   <v>       0.33307603       0.95113037       0.50000000 </v>
   <v>       0.47668087       0.95154386       0.50000000 </v>
   <v>       0.62015751       0.95313740       0.50000000 </v>
   <v>       0.76355772       0.95568687       0.50000000 </v>
   <v>       0.90440847       0.95313740       0.50000000 </v>
   <v>       0.56830873       0.56518888       0.50000000 </v>
  </varray>
 </structure>
</modeling>
