<?xml version="1.0" encoding="ISO-8859-1"?>
<modeling>
 <generator>
  <i name="program" type="string">vasp </i>
  <i name="version" type="string">5.4.4.18Apr17-6-g9f103f2a35  </i>
  <i name="subversion" type="string">(build Oct 18 2020 22:16:12) gamma-only         parallel </i>
  <i name="platform" type="string">UA-vaughan-2020a </i>
  <i name="date" type="string">2023 03 22 </i>
  <i name="time" type="string">01:27:10 </i>
 </generator>
 <incar>
  <i type="string" name="PREC">accurate</i>
  <i type="int" name="IALGO">    38</i>
  <i type="logical" name="ADDGRID"> T  </i>
  <i type="int" name="NELMIN">     5</i>
  <i type="int" name="IBRION">    -1</i>
  <i name="EDIFF">      0.00000001</i>
  <i name="EDIFFG">     -0.00000001</i>
  <i type="int" name="NSW">     0</i>
  <i type="int" name="ISIF">     2</i>
  <i name="ENCUT">    500.00000000</i>
  <i type="logical" name="LREAL"> F  </i>
  <i type="int" name="ISMEAR">     0</i>
  <i name="SIGMA">      0.01000000</i>
  <i type="logical" name="LWAVE"> F  </i>
  <i type="logical" name="LCHARG"> F  </i>
  <v type="int" name="KPOINT_BSE">    -1     0     0     0</v>
 </incar>
 <structure name="primitive_cell" >
  <crystal>
   <varray name="basis" >
    <v>      17.59966831       0.00000000       0.00000000 </v>
    <v>      -8.79983416      15.24175986       0.00000000 </v>
    <v>       0.00000000       0.00000000      19.92151445 </v>
   </varray>
   <i name="volume">   5343.94461817 </i>
   <varray name="rec_basis" >
    <v>       0.05681925       0.03280461       0.00000000 </v>
    <v>       0.00000000       0.06560922       0.00000000 </v>
    <v>       0.00000000       0.00000000       0.05019699 </v>
   </varray>
  </crystal>
  <varray name="positions" >
   <v>      -0.00056990       0.00005992      -0.50000000 </v>
   <v>      -0.09559153      -0.04686260      -0.50000000 </v>
   <v>       0.04629157      -0.04845614      -0.50000000 </v>
   <v>       0.04754270       0.09547788      -0.50000000 </v>
   <v>      -0.14173506       0.00214292      -0.50000000 </v>
   <v>       0.14259355       0.14244783      -0.50000000 </v>
   <v>       0.14164706      -0.00128105      -0.50000000 </v>
   <v>      -0.00222825      -0.14386507      -0.50000000 </v>
   <v>      -0.14440994      -0.14241310      -0.50000000 </v>
   <v>       0.00080792       0.14408264      -0.50000000 </v>
   <v>       0.18957833       0.09405657      -0.50000000 </v>
   <v>      -0.09417874       0.09719274      -0.50000000 </v>
   <v>      -0.09804946      -0.19102931      -0.50000000 </v>
   <v>      -0.23644228      -0.04431313      -0.50000000 </v>
   <v>      -0.23937155      -0.18870526      -0.50000000 </v>
   <v>       0.19048138       0.23782962      -0.50000000 </v>
   <v>       0.04582562      -0.19120635      -0.50000000 </v>
   <v>       0.04854983       0.23934281      -0.50000000 </v>
   <v>       0.18985910      -0.04886963      -0.49962381 </v>
   <v>      -0.28359367      -0.13861590      -0.50000000 </v>
   <v>       0.28470221       0.14112972      -0.50000000 </v>
   <v>      -0.14194737       0.14467669      -0.50000000 </v>
   <v>      -0.14938794      -0.28617460      -0.50000000 </v>
   <v>       0.14160898      -0.14408712      -0.50000000 </v>
   <v>       0.14372552       0.28645370      -0.50000000 </v>
   <v>      -0.28469345       0.00214292      -0.50000000 </v>
   <v>      -0.00292766      -0.28629482      -0.50000000 </v>
   <v>       0.28540977       0.28469374      -0.50000000 </v>
   <v>       0.00095476       0.28713011      -0.50000000 </v>
   <v>       0.28492260      -0.00158337      -0.50000000 </v>
   <v>      -0.29741032      -0.28373063      -0.50000000 </v>
   <v>      -0.09946280      -0.33311206      -0.50000000 </v>
   <v>       0.33234878       0.23634667      -0.50000000 </v>
   <v>      -0.23719996       0.09719274      -0.50000000 </v>
   <v>       0.33254182       0.09365506      -0.50000000 </v>
   <v>      -0.09437203       0.23982737      -0.50000000 </v>
   <v>      -0.24762082      -0.33289240      -0.50000000 </v>
   <v>      -0.37790513      -0.18870526      -0.50000000 </v>
   <v>       0.19188940       0.38184213      -0.50000000 </v>
   <v>       0.19009580      -0.19123697      -0.50000000 </v>
   <v>      -0.37984249      -0.04686260      -0.50000000 </v>
   <v>       0.04642473      -0.33314772      -0.50000000 </v>
   <v>       0.33352206       0.38013969      -0.50000000 </v>
   <v>       0.04871288       0.38232824      -0.50000000 </v>
   <v>       0.33307603      -0.04886963      -0.50000000 </v>
   <v>      -0.41489174      -0.28373063      -0.50000000 </v>
   <v>      -0.42657459      -0.14241310      -0.50000000 </v>
   <v>       0.42724431       0.28306005      -0.50000000 </v>
   <v>      -0.14538305      -0.42818375      -0.50000000 </v>
   <v>      -0.28529671       0.14408264      -0.50000000 </v>
   <v>      -0.28954788      -0.42784436      -0.50000000 </v>
   <v>       0.42785608       0.14112972      -0.50000000 </v>
   <v>      -0.14239608       0.28713011      -0.50000000 </v>
   <v>       0.14422690       0.42957551      -0.50000000 </v>
   <v>       0.28730213       0.42918005      -0.50000000 </v>
   <v>       0.14255519      -0.28631818      -0.50000000 </v>
   <v>       0.28573247      -0.14408712      -0.50000000 </v>
   <v>      -0.24098231      -0.47544567      -0.50000000 </v>
   <v>       0.47542646       0.23634667      -0.50000000 </v>
   <v>      -0.23777845       0.23934281      -0.50000000 </v>
   <v>       0.42797654       0.42569726      -0.50000000 </v>
   <v>      -0.42794161       0.00005992      -0.50000000 </v>
   <v>      -0.00071745      -0.42818538      -0.50000000 </v>
   <v>       0.00054479       0.42966101      -0.50000000 </v>
   <v>       0.42850047      -0.00128105      -0.50000000 </v>
   <v>      -0.43169127      -0.43481112      -0.50000000 </v>
   <v>       0.47472270       0.37801683      -0.50000000 </v>
   <v>      -0.09644208      -0.47523136      -0.50000000 </v>
   <v>      -0.38063624       0.09547788      -0.50000000 </v>
   <v>       0.47590681       0.09405657      -0.50000000 </v>
   <v>      -0.09495607       0.38232824      -0.50000000 </v>
   <v>      -0.38544126      -0.47853279      -0.50000000 </v>
   <v>       0.48615700      -0.33289240      -0.50000000 </v>
   <v>       0.47844872      -0.19102931      -0.50000000 </v>
   <v>       0.19263929      -0.47523136      -0.50000000 </v>
   <v>       0.33696521      -0.47544567      -0.50000000 </v>
   <v>       0.19185612      -0.33314772      -0.50000000 </v>
   <v>       0.33439660      -0.19120635      -0.50000000 </v>
   <v>       0.43464191      -0.28617460      -0.50000000 </v>
   <v>      -0.28669350       0.42918005      -0.50000000 </v>
   <v>      -0.42928746       0.28469374      -0.50000000 </v>
   <v>      -0.28584326       0.28645370      -0.50000000 </v>
   <v>       0.28862787      -0.42818375      -0.50000000 </v>
   <v>       0.28806142      -0.28629482      -0.50000000 </v>
   <v>       0.47668087      -0.04845614      -0.50000000 </v>
   <v>       0.47833704      -0.47853279      -0.50000000 </v>
   <v>       0.04810654      -0.47521548      -0.50000000 </v>
   <v>       0.43313209      -0.42784436      -0.50000000 </v>
   <v>       0.42979175      -0.14386507      -0.50000000 </v>
   <v>      -0.43085070       0.42569726      -0.50000000 </v>
   <v>      -0.14322281       0.42957551      -0.50000000 </v>
   <v>      -0.42871714       0.14244783      -0.50000000 </v>
   <v>       0.14396064      -0.42818538      -0.50000000 </v>
   <v>      -0.23861870       0.38184213      -0.50000000 </v>
   <v>      -0.38122319       0.23782962      -0.50000000 </v>
   <v>      -0.38195380       0.38013969      -0.50000000 </v>
   <v>       0.33777931      -0.33311206      -0.50000000 </v>
  </varray>
 </structure>
 <varray name="primitive_index" >
  <v type="int" >        1 </v>
  <v type="int" >       96 </v>
  <v type="int" >       90 </v>
  <v type="int" >       49 </v>
  <v type="int" >        7 </v>
  <v type="int" >        9 </v>
  <v type="int" >        2 </v>
  <v type="int" >       42 </v>
  <v type="int" >       48 </v>
  <v type="int" >        8 </v>
  <v type="int" >       50 </v>
  <v type="int" >       55 </v>
  <v type="int" >       89 </v>
  <v type="int" >       95 </v>
  <v type="int" >       88 </v>
  <v type="int" >       57 </v>
  <v type="int" >       83 </v>
  <v type="int" >       56 </v>
  <v type="int" >       91 </v>
  <v type="int" >       47 </v>
  <v type="int" >       10 </v>
  <v type="int" >       14 </v>
  <v type="int" >       41 </v>
  <v type="int" >       43 </v>
  <v type="int" >       16 </v>
  <v type="int" >        6 </v>
  <v type="int" >       35 </v>
  <v type="int" >       17 </v>
  <v type="int" >       15 </v>
  <v type="int" >        3 </v>
  <v type="int" >       40 </v>
  <v type="int" >       82 </v>
  <v type="int" >       58 </v>
  <v type="int" >       54 </v>
  <v type="int" >       51 </v>
  <v type="int" >       62 </v>
  <v type="int" >       81 </v>
  <v type="int" >       87 </v>
  <v type="int" >       64 </v>
  <v type="int" >       84 </v>
  <v type="int" >       94 </v>
  <v type="int" >       77 </v>
  <v type="int" >       65 </v>
  <v type="int" >       63 </v>
  <v type="int" >       92 </v>
  <v type="int" >       39 </v>
  <v type="int" >       46 </v>
  <v type="int" >       18 </v>
  <v type="int" >       34 </v>
  <v type="int" >       13 </v>
  <v type="int" >       33 </v>
  <v type="int" >       11 </v>
  <v type="int" >       21 </v>
  <v type="int" >       23 </v>
  <v type="int" >       24 </v>
  <v type="int" >       36 </v>
  <v type="int" >       44 </v>
  <v type="int" >       75 </v>
  <v type="int" >       59 </v>
  <v type="int" >       61 </v>
  <v type="int" >       25 </v>
  <v type="int" >        5 </v>
  <v type="int" >       29 </v>
  <v type="int" >       22 </v>
  <v type="int" >        4 </v>
  <v type="int" >       97 </v>
  <v type="int" >       66 </v>
  <v type="int" >       76 </v>
  <v type="int" >       53 </v>
  <v type="int" >       52 </v>
  <v type="int" >       69 </v>
  <v type="int" >       74 </v>
  <v type="int" >       80 </v>
  <v type="int" >       86 </v>
  <v type="int" >       71 </v>
  <v type="int" >       72 </v>
  <v type="int" >       78 </v>
  <v type="int" >       85 </v>
  <v type="int" >       38 </v>
  <v type="int" >       27 </v>
  <v type="int" >       19 </v>
  <v type="int" >       20 </v>
  <v type="int" >       31 </v>
  <v type="int" >       37 </v>
  <v type="int" >       93 </v>
  <v type="int" >       73 </v>
  <v type="int" >       70 </v>
  <v type="int" >       32 </v>
  <v type="int" >       45 </v>
  <v type="int" >       26 </v>
  <v type="int" >       28 </v>
  <v type="int" >       12 </v>
  <v type="int" >       30 </v>
  <v type="int" >       68 </v>
  <v type="int" >       60 </v>
  <v type="int" >       67 </v>
  <v type="int" >       79 </v>
 </varray>
 <kpoints>
  <generation param="Gamma">
   <v type="int" name="divisions">       1        1        1 </v>
   <v name="usershift">      0.00000000       0.00000000       0.00000000 </v>
   <v name="genvec1">      1.00000000      -0.00000000       0.00000000 </v>
   <v name="genvec2">      0.00000000       1.00000000       0.00000000 </v>
   <v name="genvec3">      0.00000000       0.00000000       1.00000000 </v>
   <v name="shift">      0.00000000       0.00000000       0.00000000 </v>
  </generation>
  <varray name="kpointlist" >
   <v>       0.00000000       0.00000000       0.00000000 </v>
  </varray>
  <varray name="weights" >
   <v>       1.00000000 </v>
  </varray>
 </kpoints>
 <parameters>
  <separator name="general" >
   <i type="string" name="SYSTEM">unknown system</i>
   <i type="logical" name="LCOMPAT"> F  </i>
  </separator>
  <separator name="electronic" >
   <i type="string" name="PREC">accura</i>
   <i name="ENMAX">    500.00000000</i>
   <i name="ENAUG">    644.87300000</i>
   <i name="EDIFF">      0.00000001</i>
   <i type="int" name="IALGO">    38</i>
   <i type="int" name="IWAVPR">    10</i>
   <i type="int" name="NBANDS">   244</i>
   <i name="NELECT">    388.00000000</i>
   <i type="int" name="TURBO">     0</i>
   <i type="int" name="IRESTART">     0</i>
   <i type="int" name="NREBOOT">     0</i>
   <i type="int" name="NMIN">     0</i>
   <i name="EREF">      0.00000000</i>
   <separator name="electronic smearing" >
    <i type="int" name="ISMEAR">     0</i>
    <i name="SIGMA">      0.01000000</i>
    <i name="KSPACING">      0.50000000</i>
    <i type="logical" name="KGAMMA"> T  </i>
   </separator>
   <separator name="electronic projectors" >
    <i type="logical" name="LREAL"> F  </i>
    <v name="ROPT">      0.00000000      0.00000000      0.00000000</v>
    <i type="int" name="LMAXPAW">  -100</i>
    <i type="int" name="LMAXMIX">     2</i>
    <i type="logical" name="NLSPLINE"> F  </i>
   </separator>
   <separator name="electronic startup" >
    <i type="int" name="ISTART">     0</i>
    <i type="int" name="ICHARG">     2</i>
    <i type="int" name="INIWAV">     1</i>
   </separator>
   <separator name="electronic spin" >
    <i type="int" name="ISPIN">     1</i>
    <i type="logical" name="LNONCOLLINEAR"> F  </i>
    <v name="MAGMOM">      1.00000000      1.00000000      1.00000000      1.00000000      1.00000000      1.00000000      1.00000000      1.00000000      1.00000000      1.00000000      1.00000000      1.00000000      1.00000000      1.00000000      1.00000000      1.00000000      1.00000000      1.00000000      1.00000000      1.00000000
      1.00000000      1.00000000      1.00000000      1.00000000      1.00000000      1.00000000      1.00000000      1.00000000      1.00000000      1.00000000      1.00000000      1.00000000      1.00000000      1.00000000      1.00000000      1.00000000      1.00000000      1.00000000      1.00000000      1.00000000
      1.00000000      1.00000000      1.00000000      1.00000000      1.00000000      1.00000000      1.00000000      1.00000000      1.00000000      1.00000000      1.00000000      1.00000000      1.00000000      1.00000000      1.00000000      1.00000000      1.00000000      1.00000000      1.00000000      1.00000000
      1.00000000      1.00000000      1.00000000      1.00000000      1.00000000      1.00000000      1.00000000      1.00000000      1.00000000      1.00000000      1.00000000      1.00000000      1.00000000      1.00000000      1.00000000      1.00000000      1.00000000      1.00000000      1.00000000      1.00000000
      1.00000000      1.00000000      1.00000000      1.00000000      1.00000000      1.00000000      1.00000000      1.00000000      1.00000000      1.00000000      1.00000000      1.00000000      1.00000000      1.00000000      1.00000000      1.00000000      1.00000000</v>
    <i name="NUPDOWN">     -1.00000000</i>
    <i type="logical" name="LSORBIT"> F  </i>
    <v name="SAXIS">      0.00000000      0.00000000      1.00000000</v>
    <i type="logical" name="LSPIRAL"> F  </i>
    <v name="QSPIRAL">      0.00000000      0.00000000      0.00000000</v>
    <i type="logical" name="LZEROZ"> F  </i>
   </separator>
   <separator name="electronic exchange-correlation" >
    <i type="logical" name="LASPH"> F  </i>
    <i type="logical" name="LMETAGGA"> F  </i>
   </separator>
   <separator name="electronic convergence" >
    <i type="int" name="NELM">    60</i>
    <i type="int" name="NELMDL">    -5</i>
    <i type="int" name="NELMIN">     5</i>
    <i name="ENINI">    500.00000000</i>
    <separator name="electronic convergence detail" >
     <i type="logical" name="LDIAG"> T  </i>
     <i type="logical" name="LSUBROT"> F  </i>
     <i name="WEIMIN">      0.00000000</i>
     <i name="EBREAK">      0.00000000</i>
     <i name="DEPER">      0.30000000</i>
     <i type="int" name="NRMM">     4</i>
     <i name="TIME">      0.40000000</i>
    </separator>
   </separator>
   <separator name="electronic mixer" >
    <i name="AMIX">      0.40000000</i>
    <i name="BMIX">      1.00000000</i>
    <i name="AMIN">      0.10000000</i>
    <i name="AMIX_MAG">      1.60000000</i>
    <i name="BMIX_MAG">      1.00000000</i>
    <separator name="electronic mixer details" >
     <i type="int" name="IMIX">     4</i>
     <i type="logical" name="MIXFIRST"> F  </i>
     <i type="int" name="MAXMIX">   -45</i>
     <i name="WC">    100.00000000</i>
     <i type="int" name="INIMIX">     1</i>
     <i type="int" name="MIXPRE">     1</i>
     <i type="int" name="MREMOVE">     5</i>
    </separator>
   </separator>
   <separator name="electronic dipolcorrection" >
    <i type="logical" name="LDIPOL"> F  </i>
    <i type="logical" name="LMONO"> F  </i>
    <i type="int" name="IDIPOL">     0</i>
    <i name="EPSILON">      1.00000000</i>
    <v name="DIPOL">   -100.00000000   -100.00000000   -100.00000000</v>
    <i name="EFIELD">      0.00000000</i>
   </separator>
  </separator>
  <separator name="grids" >
   <i type="int" name="NGX">   128</i>
   <i type="int" name="NGY">   128</i>
   <i type="int" name="NGZ">   150</i>
   <i type="int" name="NGXF">   256</i>
   <i type="int" name="NGYF">   256</i>
   <i type="int" name="NGZF">   300</i>
   <i type="logical" name="ADDGRID"> T  </i>
  </separator>
  <separator name="ionic" >
   <i type="int" name="NSW">     0</i>
   <i type="int" name="IBRION">    -1</i>
   <i type="int" name="MDALGO">     0</i>
   <i type="int" name="ISIF">     2</i>
   <i name="PSTRESS">      0.00000000</i>
   <i name="EDIFFG">     -0.00000001</i>
   <i type="int" name="NFREE">     0</i>
   <i name="POTIM">      0.50000000</i>
   <i name="SMASS">     -3.00000000</i>
   <i name="SCALEE">      1.00000000</i>
  </separator>
  <separator name="ionic md" >
   <i name="TEBEG">      0.00010000</i>
   <i name="TEEND">      0.00010000</i>
   <i type="int" name="NBLOCK">     1</i>
   <i type="int" name="KBLOCK">     1</i>
   <i type="int" name="NPACO">   256</i>
   <i name="APACO">     16.00000000</i>
  </separator>
  <separator name="symmetry" >
   <i type="int" name="ISYM">     2</i>
   <i name="SYMPREC">      0.00001000</i>
  </separator>
  <separator name="dos" >
   <i type="int" name="LORBIT">     0</i>
   <v name="RWIGS">     -1.00000000     -1.00000000     -1.00000000</v>
   <i type="int" name="NEDOS">   301</i>
   <i name="EMIN">     10.00000000</i>
   <i name="EMAX">    -10.00000000</i>
   <i name="EFERMI">      0.00000000</i>
  </separator>
  <separator name="writing" >
   <i type="int" name="NWRITE">     2</i>
   <i type="logical" name="LWAVE"> F  </i>
   <i type="logical" name="LDOWNSAMPLE"> F  </i>
   <i type="logical" name="LCHARG"> F  </i>
   <i type="logical" name="LPARD"> F  </i>
   <i type="logical" name="LVTOT"> F  </i>
   <i type="logical" name="LVHAR"> F  </i>
   <i type="logical" name="LELF"> F  </i>
   <i type="logical" name="LOPTICS"> F  </i>
   <v name="STM">      0.00000000      0.00000000      0.00000000      0.00000000      0.00000000      0.00000000      0.00000000</v>
  </separator>
  <separator name="performance" >
   <i type="int" name="NPAR">     4</i>
   <i type="int" name="NSIM">     4</i>
   <i type="int" name="NBLK">    -1</i>
   <i type="logical" name="LPLANE"> T  </i>
   <i type="logical" name="LSCALAPACK"> T  </i>
   <i type="logical" name="LSCAAWARE"> F  </i>
   <i type="logical" name="LSCALU"> F  </i>
   <i type="logical" name="LASYNC"> F  </i>
   <i type="logical" name="LORBITALREAL"> F  </i>
  </separator>
  <separator name="miscellaneous" >
   <i type="int" name="IDIOT">     3</i>
   <i type="int" name="ISPECIAL">     0</i>
   <i type="logical" name="LMUSIC"> F  </i>
   <v name="POMASS">     10.81100000     14.00100000     12.01100000</v>
   <v name="DARWINR">      0.00000000      0.00000000      0.00000000</v>
   <v name="DARWINV">      1.00000000      1.00000000      1.00000000</v>
   <i type="logical" name="LCORR"> T  </i>
  </separator>
  <i type="logical" name="GGA_COMPAT"> T  </i>
  <i type="logical" name="LBERRY"> F  </i>
  <i type="int" name="ICORELEVEL">     0</i>
  <i type="logical" name="LDAU"> F  </i>
  <i type="int" name="I_CONSTRAINED_M">     0</i>
  <separator name="electronic exchange-correlation" >
   <i type="string" name="GGA">--</i>
   <i type="int" name="VOSKOWN">     0</i>
   <i type="logical" name="LHFCALC"> F  </i>
   <i type="string" name="PRECFOCK"></i>
   <i type="logical" name="LSYMGRAD"> F  </i>
   <i type="logical" name="LHFONE"> F  </i>
   <i type="logical" name="LRHFCALC"> F  </i>
   <i type="logical" name="LTHOMAS"> F  </i>
   <i type="logical" name="LMODELHF"> F  </i>
   <i name="ENCUT4O">     -1.00000000</i>
   <i type="int" name="EXXOEP">     0</i>
   <i type="int" name="FOURORBIT">     0</i>
   <i name="AEXX">      0.00000000</i>
   <i name="HFALPHA">      0.00000000</i>
   <i name="MCALPHA">      0.00000000</i>
   <i name="ALDAX">      1.00000000</i>
   <i name="AGGAX">      1.00000000</i>
   <i name="ALDAC">      1.00000000</i>
   <i name="AGGAC">      1.00000000</i>
   <i type="int" name="NKREDX">     1</i>
   <i type="int" name="NKREDY">     1</i>
   <i type="int" name="NKREDZ">     1</i>
   <i type="logical" name="SHIFTRED"> F  </i>
   <i type="logical" name="ODDONLY"> F  </i>
   <i type="logical" name="EVENONLY"> F  </i>
   <i type="int" name="LMAXFOCK">     0</i>
   <i type="int" name="NMAXFOCKAE">     0</i>
   <i type="logical" name="LFOCKAEDFT"> F  </i>
   <i name="HFSCREEN">      0.00000000</i>
   <i name="HFSCREENC">      0.00000000</i>
   <i type="int" name="NBANDSGWLOW">     0</i>
  </separator>
  <separator name="vdW DFT" >
   <i type="logical" name="LUSE_VDW"> F  </i>
   <i name="Zab_VDW">     -0.84910000</i>
   <i name="PARAM1">      0.12340000</i>
   <i name="PARAM2">      1.00000000</i>
   <i name="PARAM3">      0.00000000</i>
  </separator>
  <separator name="model GW" >
   <i type="int" name="MODEL_GW">     0</i>
   <i name="MODEL_EPS0">     33.05532754</i>
   <i name="MODEL_ALPHA">      1.00000000</i>
  </separator>
  <separator name="linear response parameters" >
   <i type="logical" name="LEPSILON"> F  </i>
   <i type="logical" name="LRPA"> F  </i>
   <i type="logical" name="LNABLA"> F  </i>
   <i type="logical" name="LVEL"> F  </i>
   <i type="int" name="KINTER">     0</i>
   <i name="CSHIFT">      0.10000000</i>
   <i name="OMEGAMAX">     -1.00000000</i>
   <i name="DEG_THRESHOLD">      0.00200000</i>
   <i name="RTIME">     -0.10000000</i>
   <i name="WPLASMAI">      0.00000000</i>
   <v name="DFIELD">      0.00000000      0.00000000      0.00000000</v>
   <v name="WPLASMA">      0.00000000      0.00000000      0.00000000      0.00000000      0.00000000      0.00000000      0.00000000      0.00000000      0.00000000</v>
  </separator>
  <separator name="orbital magnetization" >
   <i type="logical" name="NUCIND"> F  </i>
   <v name="MAGPOS">      0.00000000      0.00000000      0.00000000</v>
   <i type="logical" name="LNICSALL"> T  </i>
   <i type="logical" name="ORBITALMAG"> F  </i>
   <i type="logical" name="LMAGBLOCH"> F  </i>
   <i type="logical" name="LCHIMAG"> F  </i>
   <i type="logical" name="LGAUGE"> T  </i>
   <i type="int" name="MAGATOM">     0</i>
   <v name="MAGDIPOL">      0.00000000      0.00000000      0.00000000</v>
   <v name="AVECCONST">      0.00000000      0.00000000      0.00000000</v>
  </separator>
  <separator name="response functions" >
   <i type="logical" name="LADDER"> F  </i>
   <i type="logical" name="LRPAFORCE"> F  </i>
   <i type="logical" name="LFXC"> F  </i>
   <i type="logical" name="LHARTREE"> T  </i>
   <i type="int" name="IBSE">     0</i>
   <v type="int" name="KPOINT">    -1     0     0     0</v>
   <i type="logical" name="LTCTE"> F  </i>
   <i type="logical" name="LTETE"> F  </i>
   <i type="logical" name="LTRIPLET"> F  </i>
   <i type="logical" name="LFXCEPS"> F  </i>
   <i type="logical" name="LFXHEG"> F  </i>
   <i type="int" name="NATURALO">     2</i>
   <i type="logical" name="L2ORDER"> F  </i>
   <i type="logical" name="LMP2LT"> F  </i>
   <i type="logical" name="LUSEW"> F  </i>
   <i name="ENCUTGW">     -2.00000000</i>
   <i name="ENCUTGWSOFT">     -2.00000000</i>
   <i name="ENCUTLF">     -1.00000000</i>
   <i type="int" name="LMAXMP2">    -1</i>
   <i name="SCISSOR">      0.00000000</i>
   <i type="int" name="NOMEGA">     0</i>
   <i type="int" name="NOMEGAR">     0</i>
   <i type="int" name="NBANDSGW">    -1</i>
   <i type="int" name="NBANDSO">    -1</i>
   <i type="int" name="NBANDSV">    -1</i>
   <i type="int" name="NELM">     1</i>
   <i type="int" name="NELMHF">     1</i>
   <i type="int" name="DIM">     3</i>
   <i type="int" name="ANTIRES">     0</i>
   <i name="OMEGAMAX">    -30.00000000</i>
   <i name="OMEGAMIN">    -30.00000000</i>
   <i name="OMEGATL">   -200.00000000</i>
   <i type="int" name="OMEGAGRID">   140</i>
   <i name="CSHIFT">     -0.10000000</i>
   <i type="logical" name="SELFENERGY"> F  </i>
   <i type="logical" name="LSPECTRAL"> F  </i>
   <i type="logical" name="LSPECTRALGW"> F  </i>
   <i type="logical" name="LSINGLES"> F  </i>
   <i type="logical" name="LFERMIGW"> F  </i>
   <i type="logical" name="ODDONLYGW"> F  </i>
   <i type="logical" name="EVENONLYGW"> F  </i>
   <i type="int" name="NKREDLFX">     1</i>
   <i type="int" name="NKREDLFY">     1</i>
   <i type="int" name="NKREDLFZ">     1</i>
   <i type="int" name="MAXMEM">  2800</i>
   <i type="int" name="TELESCOPE">     0</i>
   <i type="int" name="TAUPAR">     1</i>
   <i type="int" name="OMEGAPAR">    -1</i>
   <i name="LAMBDA">      1.00000000</i>
  </separator>
  <separator name="External order field" >
   <i name="OFIELD_KAPPA">      0.00000000</i>
   <v name="OFIELD_K">      0.00000000      0.00000000      0.00000000</v>
   <i name="OFIELD_Q6_NEAR">      0.00000000</i>
   <i name="OFIELD_Q6_FAR">      0.00000000</i>
   <i name="OFIELD_A">      0.00000000</i>
  </separator>
 </parameters>
 <atominfo>
  <atoms>      97 </atoms>
  <types>       3 </types>
  <array name="atoms" >
   <dimension dim="1">ion</dimension>
   <field type="string">element</field>
   <field type="int">atomtype</field>
   <set>
    <rc><c>B </c><c>   1</c></rc>
    <rc><c>B </c><c>   1</c></rc>
    <rc><c>B </c><c>   1</c></rc>
    <rc><c>B </c><c>   1</c></rc>
    <rc><c>B </c><c>   1</c></rc>
    <rc><c>B </c><c>   1</c></rc>
    <rc><c>B </c><c>   1</c></rc>
    <rc><c>B </c><c>   1</c></rc>
    <rc><c>B </c><c>   1</c></rc>
    <rc><c>B </c><c>   1</c></rc>
    <rc><c>B </c><c>   1</c></rc>
    <rc><c>B </c><c>   1</c></rc>
    <rc><c>B </c><c>   1</c></rc>
    <rc><c>B </c><c>   1</c></rc>
    <rc><c>B </c><c>   1</c></rc>
    <rc><c>B </c><c>   1</c></rc>
    <rc><c>B </c><c>   1</c></rc>
    <rc><c>B </c><c>   1</c></rc>
    <rc><c>B </c><c>   1</c></rc>
    <rc><c>B </c><c>   1</c></rc>
    <rc><c>B </c><c>   1</c></rc>
    <rc><c>B </c><c>   1</c></rc>
    <rc><c>B </c><c>   1</c></rc>
    <rc><c>B </c><c>   1</c></rc>
    <rc><c>B </c><c>   1</c></rc>
    <rc><c>B </c><c>   1</c></rc>
    <rc><c>B </c><c>   1</c></rc>
    <rc><c>B </c><c>   1</c></rc>
    <rc><c>B </c><c>   1</c></rc>
    <rc><c>B </c><c>   1</c></rc>
    <rc><c>B </c><c>   1</c></rc>
    <rc><c>B </c><c>   1</c></rc>
    <rc><c>B </c><c>   1</c></rc>
    <rc><c>B </c><c>   1</c></rc>
    <rc><c>B </c><c>   1</c></rc>
    <rc><c>B </c><c>   1</c></rc>
    <rc><c>B </c><c>   1</c></rc>
    <rc><c>B </c><c>   1</c></rc>
    <rc><c>B </c><c>   1</c></rc>
    <rc><c>B </c><c>   1</c></rc>
    <rc><c>B </c><c>   1</c></rc>
    <rc><c>B </c><c>   1</c></rc>
    <rc><c>B </c><c>   1</c></rc>
    <rc><c>B </c><c>   1</c></rc>
    <rc><c>B </c><c>   1</c></rc>
    <rc><c>B </c><c>   1</c></rc>
    <rc><c>B </c><c>   1</c></rc>
    <rc><c>B </c><c>   1</c></rc>
    <rc><c>N </c><c>   2</c></rc>
    <rc><c>N </c><c>   2</c></rc>
    <rc><c>N </c><c>   2</c></rc>
    <rc><c>N </c><c>   2</c></rc>
    <rc><c>N </c><c>   2</c></rc>
    <rc><c>N </c><c>   2</c></rc>
    <rc><c>N </c><c>   2</c></rc>
    <rc><c>N </c><c>   2</c></rc>
    <rc><c>N </c><c>   2</c></rc>
    <rc><c>N </c><c>   2</c></rc>
    <rc><c>N </c><c>   2</c></rc>
    <rc><c>N </c><c>   2</c></rc>
    <rc><c>N </c><c>   2</c></rc>
    <rc><c>N </c><c>   2</c></rc>
    <rc><c>N </c><c>   2</c></rc>
    <rc><c>N </c><c>   2</c></rc>
    <rc><c>N </c><c>   2</c></rc>
    <rc><c>N </c><c>   2</c></rc>
    <rc><c>N </c><c>   2</c></rc>
    <rc><c>N </c><c>   2</c></rc>
    <rc><c>N </c><c>   2</c></rc>
    <rc><c>N </c><c>   2</c></rc>
    <rc><c>N </c><c>   2</c></rc>
    <rc><c>N </c><c>   2</c></rc>
    <rc><c>N </c><c>   2</c></rc>
    <rc><c>N </c><c>   2</c></rc>
    <rc><c>N </c><c>   2</c></rc>
    <rc><c>N </c><c>   2</c></rc>
    <rc><c>N </c><c>   2</c></rc>
    <rc><c>N </c><c>   2</c></rc>
    <rc><c>N </c><c>   2</c></rc>
    <rc><c>N </c><c>   2</c></rc>
    <rc><c>N </c><c>   2</c></rc>
    <rc><c>N </c><c>   2</c></rc>
    <rc><c>N </c><c>   2</c></rc>
    <rc><c>N </c><c>   2</c></rc>
    <rc><c>N </c><c>   2</c></rc>
    <rc><c>N </c><c>   2</c></rc>
    <rc><c>N </c><c>   2</c></rc>
    <rc><c>N </c><c>   2</c></rc>
    <rc><c>N </c><c>   2</c></rc>
    <rc><c>N </c><c>   2</c></rc>
    <rc><c>N </c><c>   2</c></rc>
    <rc><c>N </c><c>   2</c></rc>
    <rc><c>N </c><c>   2</c></rc>
    <rc><c>N </c><c>   2</c></rc>
    <rc><c>N </c><c>   2</c></rc>
    <rc><c>N </c><c>   2</c></rc>
    <rc><c>C </c><c>   3</c></rc>
   </set>
  </array>
  <array name="atomtypes" >
   <dimension dim="1">type</dimension>
   <field type="int">atomspertype</field>
   <field type="string">element</field>
   <field>mass</field>
   <field>valence</field>
   <field type="string">pseudopotential</field>
   <set>
    <rc><c>  48</c><c>B </c><c>     10.81100000</c><c>      3.00000000</c><c>  PAW_PBE B 06Sep2000                   </c></rc>
    <rc><c>  48</c><c>N </c><c>     14.00100000</c><c>      5.00000000</c><c>  PAW_PBE N 08Apr2002                   </c></rc>
    <rc><c>   1</c><c>C </c><c>     12.01100000</c><c>      4.00000000</c><c>  PAW_PBE C 08Apr2002                   </c></rc>
   </set>
  </array>
 </atominfo>
 <structure name="initialpos" >
  <crystal>
   <varray name="basis" >
    <v>      17.59966831       0.00000000       0.00000000 </v>
    <v>      -8.79983416      15.24175986       0.00000000 </v>
    <v>       0.00000000       0.00000000      19.92151445 </v>
   </varray>
   <i name="volume">   5343.94461817 </i>
   <varray name="rec_basis" >
    <v>       0.05681925       0.03280461       0.00000000 </v>
    <v>       0.00000000       0.06560922       0.00000000 </v>
    <v>       0.00000000       0.00000000       0.05019699 </v>
   </varray>
  </crystal>
  <varray name="positions" >
   <v>       0.99943010       0.00005992       0.50000000 </v>
   <v>       0.14164706       0.99871895       0.50000000 </v>
   <v>       0.28492260       0.99841663       0.50000000 </v>
   <v>       0.42850047       0.99871895       0.50000000 </v>
   <v>       0.57205839       0.00005992       0.50000000 </v>
   <v>       0.71530655       0.00214292       0.50000000 </v>
   <v>       0.85826494       0.00214292       0.50000000 </v>
   <v>       0.00080792       0.14408264       0.50000000 </v>
   <v>       0.14259355       0.14244783       0.50000000 </v>
   <v>       0.28470221       0.14112972       0.50000000 </v>
   <v>       0.42785608       0.14112972       0.50000000 </v>
   <v>       0.57128286       0.14244783       0.50000000 </v>
   <v>       0.71470329       0.14408264       0.50000000 </v>
   <v>       0.85805263       0.14467669       0.50000000 </v>
   <v>       0.00095476       0.28713011       0.50000000 </v>
   <v>       0.14372552       0.28645370       0.50000000 </v>
   <v>       0.28540977       0.28469374       0.50000000 </v>
   <v>       0.42724431       0.28306005       0.50000000 </v>
   <v>       0.57071254       0.28469374       0.50000000 </v>
   <v>       0.71415674       0.28645370       0.50000000 </v>
   <v>       0.85760392       0.28713011       0.50000000 </v>
   <v>       0.00054479       0.42966101       0.50000000 </v>
   <v>       0.14422690       0.42957551       0.50000000 </v>
   <v>       0.28730213       0.42918005       0.50000000 </v>
   <v>       0.42797654       0.42569726       0.50000000 </v>
   <v>       0.56914930       0.42569726       0.50000000 </v>
   <v>       0.71330650       0.42918005       0.50000000 </v>
   <v>       0.85677719       0.42957551       0.50000000 </v>
   <v>       0.99928255       0.57181462       0.50000000 </v>
   <v>       0.14396064       0.57181462       0.50000000 </v>
   <v>       0.28862787       0.57181625       0.50000000 </v>
   <v>       0.43313209       0.57215564       0.50000000 </v>
   <v>       0.71045212       0.57215564       0.50000000 </v>
   <v>       0.85461695       0.57181625       0.50000000 </v>
   <v>       0.99707234       0.71370518       0.50000000 </v>
   <v>       0.14255519       0.71368182       0.50000000 </v>
   <v>       0.28806142       0.71370518       0.50000000 </v>
   <v>       0.43464191       0.71382540       0.50000000 </v>
   <v>       0.58510826       0.71626937       0.50000000 </v>
   <v>       0.70258968       0.71626937       0.50000000 </v>
   <v>       0.85061206       0.71382540       0.50000000 </v>
   <v>       0.99777175       0.85613493       0.50000000 </v>
   <v>       0.14160898       0.85591288       0.50000000 </v>
   <v>       0.28573247       0.85591288       0.50000000 </v>
   <v>       0.42979175       0.85613493       0.50000000 </v>
   <v>       0.57342541       0.85758690       0.50000000 </v>
   <v>       0.71640633       0.86138410       0.50000000 </v>
   <v>       0.85559006       0.85758690       0.50000000 </v>
   <v>       0.04754270       0.09547788       0.50000000 </v>
   <v>       0.18957833       0.09405657       0.50000000 </v>
   <v>       0.33254182       0.09365506       0.50000000 </v>
   <v>       0.47590681       0.09405657       0.50000000 </v>
   <v>       0.61936376       0.09547788       0.50000000 </v>
   <v>       0.76280004       0.09719274       0.50000000 </v>
   <v>       0.90582126       0.09719274       0.50000000 </v>
   <v>       0.04854983       0.23934281       0.50000000 </v>
   <v>       0.19048138       0.23782962       0.50000000 </v>
   <v>       0.33234878       0.23634667       0.50000000 </v>
   <v>       0.47542646       0.23634667       0.50000000 </v>
   <v>       0.61877681       0.23782962       0.50000000 </v>
   <v>       0.76222155       0.23934281       0.50000000 </v>
   <v>       0.90562797       0.23982737       0.50000000 </v>
   <v>       0.04871288       0.38232824       0.50000000 </v>
   <v>       0.19188940       0.38184213       0.50000000 </v>
   <v>       0.33352206       0.38013969       0.50000000 </v>
   <v>       0.47472270       0.37801683       0.50000000 </v>
   <v>       0.61804620       0.38013969       0.50000000 </v>
   <v>       0.76138130       0.38184213       0.50000000 </v>
   <v>       0.90504393       0.38232824       0.50000000 </v>
   <v>       0.04810654       0.52478452       0.50000000 </v>
   <v>       0.19263929       0.52476864       0.50000000 </v>
   <v>       0.33696521       0.52455433       0.50000000 </v>
   <v>       0.47833704       0.52146721       0.50000000 </v>
   <v>       0.61455874       0.52146721       0.50000000 </v>
   <v>       0.75901769       0.52455433       0.50000000 </v>
   <v>       0.90355792       0.52476864       0.50000000 </v>
   <v>       0.04642473       0.66685228       0.50000000 </v>
   <v>       0.19185612       0.66685228       0.50000000 </v>
   <v>       0.33777931       0.66688794       0.50000000 </v>
   <v>       0.48615700       0.66710760       0.50000000 </v>
   <v>       0.75237918       0.66710760       0.50000000 </v>
   <v>       0.90053720       0.66688794       0.50000000 </v>
   <v>       0.04582562       0.80879365       0.50000000 </v>
   <v>       0.19009580       0.80876303       0.50000000 </v>
   <v>       0.33439660       0.80879365       0.50000000 </v>
   <v>       0.47844872       0.80897069       0.50000000 </v>
   <v>       0.62209487       0.81129474       0.50000000 </v>
   <v>       0.76062845       0.81129474       0.50000000 </v>
   <v>       0.90195054       0.80897069       0.50000000 </v>
   <v>       0.04629157       0.95154386       0.50000000 </v>
   <v>       0.18985910       0.95113037       0.50037619 </v>
   <v>       0.33307603       0.95113037       0.50000000 </v>
   <v>       0.47668087       0.95154386       0.50000000 </v>
   <v>       0.62015751       0.95313740       0.50000000 </v>
   <v>       0.76355772       0.95568687       0.50000000 </v>
   <v>       0.90440847       0.95313740       0.50000000 </v>
   <v>       0.56830873       0.56518888       0.50000000 </v>
  </varray>
 </structure>
 <calculation>
  <scstep>
   <time name="dav">    2.36    2.39</time>
   <time name="total">    2.73    2.82</time>
   <energy>
    <i name="alphaZ">    156.50993408 </i>
    <i name="ewald">  58206.77065487 </i>
    <i name="hartreedc"> -70374.19680893 </i>
    <i name="XCdc">   1302.10864072 </i>
    <i name="pawpsdc">  12033.28670802 </i>
    <i name="pawaedc"> -12049.96799276 </i>
    <i name="eentropy">     -0.00000000 </i>
    <i name="bandstr">   -904.54308386 </i>
    <i name="atom">  16260.93880140 </i>
    <i name="e_fr_energy">   4630.90685353 </i>
    <i name="e_wo_entrp">   4630.90685353 </i>
    <i name="e_0_energy">   4630.90685353 </i>
   </energy>
  </scstep>
  <scstep>
   <time name="dav">    3.00    3.03</time>
   <time name="total">    3.00    3.03</time>
   <energy>
    <i name="e_fr_energy">    216.64955985 </i>
    <i name="e_wo_entrp">    216.64955985 </i>
    <i name="e_0_energy">    216.64955985 </i>
   </energy>
  </scstep>
  <scstep>
   <time name="dav">    2.48    2.50</time>
   <time name="total">    2.48    2.50</time>
   <energy>
    <i name="e_fr_energy">   -867.46955742 </i>
    <i name="e_wo_entrp">   -867.46955742 </i>
    <i name="e_0_energy">   -867.46955742 </i>
   </energy>
  </scstep>
  <scstep>
   <time name="dav">    2.47    2.50</time>
   <time name="total">    2.47    2.50</time>
   <energy>
    <i name="e_fr_energy">   -934.19554737 </i>
    <i name="e_wo_entrp">   -934.19554737 </i>
    <i name="e_0_energy">   -934.19554737 </i>
   </energy>
  </scstep>
  <scstep>
   <time name="dav">    2.51    2.54</time>
   <time name="total">    2.76    2.79</time>
   <energy>
    <i name="e_fr_energy">   -935.77580026 </i>
    <i name="e_wo_entrp">   -935.77580026 </i>
    <i name="e_0_energy">   -935.77580026 </i>
   </energy>
  </scstep>
  <scstep>
   <time name="dav">    2.32    2.34</time>
   <time name="total">    2.93    2.96</time>
   <energy>
    <i name="e_fr_energy">   -858.73629106 </i>
    <i name="e_wo_entrp">   -858.73629106 </i>
    <i name="e_0_energy">   -858.73629106 </i>
   </energy>
  </scstep>
  <scstep>
   <time name="dav">    2.37    2.39</time>
   <time name="total">    2.98    3.01</time>
   <energy>
    <i name="e_fr_energy">   -850.19494488 </i>
    <i name="e_wo_entrp">   -850.19494488 </i>
    <i name="e_0_energy">   -850.19494488 </i>
   </energy>
  </scstep>
  <scstep>
   <time name="dav">    2.29    2.31</time>
   <time name="total">    2.89    2.93</time>
   <energy>
    <i name="e_fr_energy">   -845.92698196 </i>
    <i name="e_wo_entrp">   -845.92698111 </i>
    <i name="e_0_energy">   -845.92698154 </i>
   </energy>
  </scstep>
  <scstep>
   <time name="dav">    2.30    2.32</time>
   <time name="total">    2.91    2.94</time>
   <energy>
    <i name="e_fr_energy">   -845.80173812 </i>
    <i name="e_wo_entrp">   -845.80173812 </i>
    <i name="e_0_energy">   -845.80173812 </i>
   </energy>
  </scstep>
  <scstep>
   <time name="dav">    2.38    2.40</time>
   <time name="total">    3.06    5.56</time>
   <energy>
    <i name="e_fr_energy">   -845.64072506 </i>
    <i name="e_wo_entrp">   -845.64072506 </i>
    <i name="e_0_energy">   -845.64072506 </i>
   </energy>
  </scstep>
  <scstep>
   <time name="dav">    2.23    2.25</time>
   <time name="total">    2.83    3.33</time>
   <energy>
    <i name="e_fr_energy">   -845.59088791 </i>
    <i name="e_wo_entrp">   -845.59088791 </i>
    <i name="e_0_energy">   -845.59088791 </i>
   </energy>
  </scstep>
  <scstep>
   <time name="dav">    2.28    2.30</time>
   <time name="total">    2.89    2.92</time>
   <energy>
    <i name="e_fr_energy">   -845.57769856 </i>
    <i name="e_wo_entrp">   -845.57769856 </i>
    <i name="e_0_energy">   -845.57769856 </i>
   </energy>
  </scstep>
  <scstep>
   <time name="dav">    2.23    2.24</time>
   <time name="total">    2.84    2.87</time>
   <energy>
    <i name="e_fr_energy">   -845.57680720 </i>
    <i name="e_wo_entrp">   -845.57680720 </i>
    <i name="e_0_energy">   -845.57680720 </i>
   </energy>
  </scstep>
  <scstep>
   <time name="dav">    2.23    2.25</time>
   <time name="total">    2.85    2.88</time>
   <energy>
    <i name="e_fr_energy">   -845.58236170 </i>
    <i name="e_wo_entrp">   -845.58236170 </i>
    <i name="e_0_energy">   -845.58236170 </i>
   </energy>
  </scstep>
  <scstep>
   <time name="dav">    2.25    2.27</time>
   <time name="total">    2.87    2.90</time>
   <energy>
    <i name="e_fr_energy">   -845.60598512 </i>
    <i name="e_wo_entrp">   -845.60598512 </i>
    <i name="e_0_energy">   -845.60598512 </i>
   </energy>
  </scstep>
  <scstep>
   <time name="dav">    2.15    2.17</time>
   <time name="total">    2.76    2.80</time>
   <energy>
    <i name="e_fr_energy">   -845.63138186 </i>
    <i name="e_wo_entrp">   -845.63138186 </i>
    <i name="e_0_energy">   -845.63138186 </i>
   </energy>
  </scstep>
  <scstep>
   <time name="dav">    2.24    2.26</time>
   <time name="total">    2.85    2.88</time>
   <energy>
    <i name="e_fr_energy">   -845.64506709 </i>
    <i name="e_wo_entrp">   -845.64506709 </i>
    <i name="e_0_energy">   -845.64506709 </i>
   </energy>
  </scstep>
  <scstep>
   <time name="dav">    2.25    2.27</time>
   <time name="total">    2.86    2.90</time>
   <energy>
    <i name="e_fr_energy">   -845.65064079 </i>
    <i name="e_wo_entrp">   -845.65064079 </i>
    <i name="e_0_energy">   -845.65064079 </i>
   </energy>
  </scstep>
  <scstep>
   <time name="dav">    2.22    2.25</time>
   <time name="total">    2.84    2.87</time>
   <energy>
    <i name="e_fr_energy">   -845.65277313 </i>
    <i name="e_wo_entrp">   -845.65277313 </i>
    <i name="e_0_energy">   -845.65277313 </i>
   </energy>
  </scstep>
  <scstep>
   <time name="dav">    2.25    2.27</time>
   <time name="total">    2.87    2.90</time>
   <energy>
    <i name="e_fr_energy">   -845.65353274 </i>
    <i name="e_wo_entrp">   -845.65353274 </i>
    <i name="e_0_energy">   -845.65353274 </i>
   </energy>
  </scstep>
  <scstep>
   <time name="dav">    2.26    2.28</time>
   <time name="total">    2.87    2.90</time>
   <energy>
    <i name="e_fr_energy">   -845.65382462 </i>
    <i name="e_wo_entrp">   -845.65382462 </i>
    <i name="e_0_energy">   -845.65382462 </i>
   </energy>
  </scstep>
  <scstep>
   <time name="dav">    2.15    2.17</time>
   <time name="total">    2.77    2.82</time>
   <energy>
    <i name="e_fr_energy">   -845.65401834 </i>
    <i name="e_wo_entrp">   -845.65401834 </i>
    <i name="e_0_energy">   -845.65401834 </i>
   </energy>
  </scstep>
  <scstep>
   <time name="dav">    2.20    2.22</time>
   <time name="total">    2.82    2.85</time>
   <energy>
    <i name="e_fr_energy">   -845.65413183 </i>
    <i name="e_wo_entrp">   -845.65413183 </i>
    <i name="e_0_energy">   -845.65413183 </i>
   </energy>
  </scstep>
  <scstep>
   <time name="dav">    2.15    2.17</time>
   <time name="total">    2.78    2.81</time>
   <energy>
    <i name="e_fr_energy">   -845.65420715 </i>
    <i name="e_wo_entrp">   -845.65420715 </i>
    <i name="e_0_energy">   -845.65420715 </i>
   </energy>
  </scstep>
  <scstep>
   <time name="dav">    2.27    2.30</time>
   <time name="total">    2.89    2.92</time>
   <energy>
    <i name="e_fr_energy">   -845.65423846 </i>
    <i name="e_wo_entrp">   -845.65423846 </i>
    <i name="e_0_energy">   -845.65423846 </i>
   </energy>
  </scstep>
  <scstep>
   <time name="dav">    2.15    2.17</time>
   <time name="total">    2.77    2.80</time>
   <energy>
    <i name="e_fr_energy">   -845.65425664 </i>
    <i name="e_wo_entrp">   -845.65425664 </i>
    <i name="e_0_energy">   -845.65425664 </i>
   </energy>
  </scstep>
  <scstep>
   <time name="dav">    2.23    2.25</time>
   <time name="total">    2.85    2.88</time>
   <energy>
    <i name="e_fr_energy">   -845.65426296 </i>
    <i name="e_wo_entrp">   -845.65426296 </i>
    <i name="e_0_energy">   -845.65426296 </i>
   </energy>
  </scstep>
  <scstep>
   <time name="dav">    2.00    2.02</time>
   <time name="total">    2.62    2.65</time>
   <energy>
    <i name="e_fr_energy">   -845.65426556 </i>
    <i name="e_wo_entrp">   -845.65426556 </i>
    <i name="e_0_energy">   -845.65426556 </i>
   </energy>
  </scstep>
  <scstep>
   <time name="dav">    1.93    1.95</time>
   <time name="total">    2.55    2.59</time>
   <energy>
    <i name="e_fr_energy">   -845.65426639 </i>
    <i name="e_wo_entrp">   -845.65426639 </i>
    <i name="e_0_energy">   -845.65426639 </i>
   </energy>
  </scstep>
  <scstep>
   <time name="dav">    1.69    1.70</time>
   <time name="total">    2.31    2.34</time>
   <energy>
    <i name="e_fr_energy">   -845.65426656 </i>
    <i name="e_wo_entrp">   -845.65426656 </i>
    <i name="e_0_energy">   -845.65426656 </i>
   </energy>
  </scstep>
  <scstep>
   <time name="dav">    1.67    1.68</time>
   <time name="total">    2.29    2.32</time>
   <energy>
    <i name="e_fr_energy">   -845.65426664 </i>
    <i name="e_wo_entrp">   -845.65426664 </i>
    <i name="e_0_energy">   -845.65426664 </i>
   </energy>
  </scstep>
  <scstep>
   <time name="dav">    1.80    1.81</time>
   <time name="total">    2.42    2.45</time>
   <energy>
    <i name="e_fr_energy">   -845.65426665 </i>
    <i name="e_wo_entrp">   -845.65426665 </i>
    <i name="e_0_energy">   -845.65426665 </i>
   </energy>
  </scstep>
  <scstep>
   <time name="dav">    1.71    1.73</time>
   <time name="total">    2.09    2.11</time>
   <energy>
    <i name="alphaZ">    156.50993408 </i>
    <i name="ewald">  58206.77065487 </i>
    <i name="hartreedc"> -72314.27666985 </i>
    <i name="XCdc">   1369.72373732 </i>
    <i name="pawpsdc">  44018.72006979 </i>
    <i name="pawaedc"> -44054.06189059 </i>
    <i name="eentropy">     -0.00000000 </i>
    <i name="bandstr">  -4489.97890367 </i>
    <i name="atom">  16260.93880140 </i>
    <i name="e_fr_energy">   -845.65426666 </i>
    <i name="e_wo_entrp">   -845.65426666 </i>
    <i name="e_0_energy">   -845.65426666 </i>
   </energy>
  </scstep>
  <structure>
   <crystal>
    <varray name="basis" >
     <v>      17.59966831       0.00000000       0.00000000 </v>
     <v>      -8.79983416      15.24175986       0.00000000 </v>
     <v>       0.00000000       0.00000000      19.92151445 </v>
    </varray>
    <i name="volume">   5343.94461817 </i>
    <varray name="rec_basis" >
     <v>       0.05681925       0.03280461       0.00000000 </v>
     <v>       0.00000000       0.06560922       0.00000000 </v>
     <v>       0.00000000       0.00000000       0.05019699 </v>
    </varray>
   </crystal>
   <varray name="positions" >
    <v>       0.99943010       0.00005992       0.50000000 </v>
    <v>       0.14164706       0.99871895       0.50000000 </v>
    <v>       0.28492260       0.99841663       0.50000000 </v>
    <v>       0.42850047       0.99871895       0.50000000 </v>
    <v>       0.57205839       0.00005992       0.50000000 </v>
    <v>       0.71530655       0.00214292       0.50000000 </v>
    <v>       0.85826494       0.00214292       0.50000000 </v>
    <v>       0.00080792       0.14408264       0.50000000 </v>
    <v>       0.14259355       0.14244783       0.50000000 </v>
    <v>       0.28470221       0.14112972       0.50000000 </v>
    <v>       0.42785608       0.14112972       0.50000000 </v>
    <v>       0.57128286       0.14244783       0.50000000 </v>
    <v>       0.71470329       0.14408264       0.50000000 </v>
    <v>       0.85805263       0.14467669       0.50000000 </v>
    <v>       0.00095476       0.28713011       0.50000000 </v>
    <v>       0.14372552       0.28645370       0.50000000 </v>
    <v>       0.28540977       0.28469374       0.50000000 </v>
    <v>       0.42724431       0.28306005       0.50000000 </v>
    <v>       0.57071254       0.28469374       0.50000000 </v>
    <v>       0.71415674       0.28645370       0.50000000 </v>
    <v>       0.85760392       0.28713011       0.50000000 </v>
    <v>       0.00054479       0.42966101       0.50000000 </v>
    <v>       0.14422690       0.42957551       0.50000000 </v>
    <v>       0.28730213       0.42918005       0.50000000 </v>
    <v>       0.42797654       0.42569726       0.50000000 </v>
    <v>       0.56914930       0.42569726       0.50000000 </v>
    <v>       0.71330650       0.42918005       0.50000000 </v>
    <v>       0.85677719       0.42957551       0.50000000 </v>
    <v>       0.99928255       0.57181462       0.50000000 </v>
    <v>       0.14396064       0.57181462       0.50000000 </v>
    <v>       0.28862787       0.57181625       0.50000000 </v>
    <v>       0.43313209       0.57215564       0.50000000 </v>
    <v>       0.71045212       0.57215564       0.50000000 </v>
    <v>       0.85461695       0.57181625       0.50000000 </v>
    <v>       0.99707234       0.71370518       0.50000000 </v>
    <v>       0.14255519       0.71368182       0.50000000 </v>
    <v>       0.28806142       0.71370518       0.50000000 </v>
    <v>       0.43464191       0.71382540       0.50000000 </v>
    <v>       0.58510826       0.71626937       0.50000000 </v>
    <v>       0.70258968       0.71626937       0.50000000 </v>
    <v>       0.85061206       0.71382540       0.50000000 </v>
    <v>       0.99777175       0.85613493       0.50000000 </v>
    <v>       0.14160898       0.85591288       0.50000000 </v>
    <v>       0.28573247       0.85591288       0.50000000 </v>
    <v>       0.42979175       0.85613493       0.50000000 </v>
    <v>       0.57342541       0.85758690       0.50000000 </v>
    <v>       0.71640633       0.86138410       0.50000000 </v>
    <v>       0.85559006       0.85758690       0.50000000 </v>
    <v>       0.04754270       0.09547788       0.50000000 </v>
    <v>       0.18957833       0.09405657       0.50000000 </v>
    <v>       0.33254182       0.09365506       0.50000000 </v>
    <v>       0.47590681       0.09405657       0.50000000 </v>
    <v>       0.61936376       0.09547788       0.50000000 </v>
    <v>       0.76280004       0.09719274       0.50000000 </v>
    <v>       0.90582126       0.09719274       0.50000000 </v>
    <v>       0.04854983       0.23934281       0.50000000 </v>
    <v>       0.19048138       0.23782962       0.50000000 </v>
    <v>       0.33234878       0.23634667       0.50000000 </v>
    <v>       0.47542646       0.23634667       0.50000000 </v>
    <v>       0.61877681       0.23782962       0.50000000 </v>
    <v>       0.76222155       0.23934281       0.50000000 </v>
    <v>       0.90562797       0.23982737       0.50000000 </v>
    <v>       0.04871288       0.38232824       0.50000000 </v>
    <v>       0.19188940       0.38184213       0.50000000 </v>
    <v>       0.33352206       0.38013969       0.50000000 </v>
    <v>       0.47472270       0.37801683       0.50000000 </v>
    <v>       0.61804620       0.38013969       0.50000000 </v>
    <v>       0.76138130       0.38184213       0.50000000 </v>
    <v>       0.90504393       0.38232824       0.50000000 </v>
    <v>       0.04810654       0.52478452       0.50000000 </v>
    <v>       0.19263929       0.52476864       0.50000000 </v>
    <v>       0.33696521       0.52455433       0.50000000 </v>
    <v>       0.47833704       0.52146721       0.50000000 </v>
    <v>       0.61455874       0.52146721       0.50000000 </v>
    <v>       0.75901769       0.52455433       0.50000000 </v>
    <v>       0.90355792       0.52476864       0.50000000 </v>
    <v>       0.04642473       0.66685228       0.50000000 </v>
    <v>       0.19185612       0.66685228       0.50000000 </v>
    <v>       0.33777931       0.66688794       0.50000000 </v>
    <v>       0.48615700       0.66710760       0.50000000 </v>
    <v>       0.75237918       0.66710760       0.50000000 </v>
    <v>       0.90053720       0.66688794       0.50000000 </v>
    <v>       0.04582562       0.80879365       0.50000000 </v>
    <v>       0.19009580       0.80876303       0.50000000 </v>
    <v>       0.33439660       0.80879365       0.50000000 </v>
    <v>       0.47844872       0.80897069       0.50000000 </v>
    <v>       0.62209487       0.81129474       0.50000000 </v>
    <v>       0.76062845       0.81129474       0.50000000 </v>
    <v>       0.90195054       0.80897069       0.50000000 </v>
    <v>       0.04629157       0.95154386       0.50000000 </v>
    <v>       0.18985910       0.95113037       0.50037619 </v>
    <v>       0.33307603       0.95113037       0.50000000 </v>
    <v>       0.47668087       0.95154386       0.50000000 </v>
    <v>       0.62015751       0.95313740       0.50000000 </v>
    <v>       0.76355772       0.95568687       0.50000000 </v>
    <v>       0.90440847       0.95313740       0.50000000 </v>
    <v>       0.56830873       0.56518888       0.50000000 </v>
   </varray>
  </structure>
  <varray name="forces" >
   <v>      -0.04592100      -0.01993049      -0.00207940 </v>
   <v>       0.09506473      -0.04569525       0.03854003 </v>
   <v>       0.12033165       0.02547284       0.03749245 </v>
   <v>       0.01551604      -0.01608307      -0.00207444 </v>
   <v>       0.03702215      -0.02744296       0.00014046 </v>
   <v>      -0.03561492      -0.04971820       0.00000373 </v>
   <v>       0.03111597      -0.04869826       0.00014966 </v>
   <v>      -0.00859543      -0.02524725       0.00018705 </v>
   <v>      -0.03045409      -0.02203815      -0.00209699 </v>
   <v>       0.00677821      -0.03363377       0.00153885 </v>
   <v>       0.00418336      -0.03708609      -0.00208951 </v>
   <v>       0.02436992      -0.02725690       0.00018738 </v>
   <v>       0.00416624      -0.02744051      -0.00000066 </v>
   <v>      -0.00180081      -0.04106551      -0.00000129 </v>
   <v>      -0.00959818      -0.02856694      -0.00000074 </v>
   <v>       0.00481628      -0.04319087       0.00014146 </v>
   <v>      -0.02846844      -0.00172380       0.00004714 </v>
   <v>       0.00211617      -0.09491618       0.00004711 </v>
   <v>       0.03006956      -0.00393668       0.00014050 </v>
   <v>      -0.00634716      -0.04519151      -0.00000090 </v>
   <v>       0.00751341      -0.02935183       0.00001717 </v>
   <v>      -0.00033532       0.00772975       0.00000127 </v>
   <v>      -0.02559656      -0.00001956       0.00000522 </v>
   <v>       0.05760071      -0.13770567       0.00001074 </v>
   <v>      -0.11118627      -0.20018624       0.00001785 </v>
   <v>       0.11218988      -0.20081994       0.00001500 </v>
   <v>      -0.05757019      -0.13948902       0.00000488 </v>
   <v>       0.02506231      -0.00151917       0.00000190 </v>
   <v>       0.01720641       0.02890657       0.00017040 </v>
   <v>      -0.01651662       0.03061677       0.00014578 </v>
   <v>      -0.08583203       0.12934449       0.00000976 </v>
   <v>       0.05035358       0.39696424       0.00001165 </v>
   <v>      -0.05066570       0.39538449       0.00000944 </v>
   <v>       0.08606903       0.12642932       0.00014052 </v>
   <v>      -0.00468650       0.01823635      -0.00205335 </v>
   <v>       0.00382749       0.03179709      -0.00208267 </v>
   <v>       0.00809105       0.02522637       0.00005060 </v>
   <v>       0.08561437       0.04399602       0.00001500 </v>
   <v>       1.36371908       1.25046732       0.00001285 </v>
   <v>      -1.36481307       1.24992776       0.00001625 </v>
   <v>      -0.08690949       0.04021709       0.00005024 </v>
   <v>      -0.04842996      -0.01694995       0.00151773 </v>
   <v>       0.04064025      -0.00345505       0.03789102 </v>
   <v>       0.01126947       0.00492486       0.00150472 </v>
   <v>       0.04416738      -0.00657223       0.00004690 </v>
   <v>       0.14917860       0.03637703       0.00001000 </v>
   <v>      -0.00161063      -0.25266635       0.00001059 </v>
   <v>      -0.15344687       0.03508356       0.00004273 </v>
   <v>       0.02933329       0.02881192       0.00042108 </v>
   <v>       0.00849206       0.00626525      -0.00788793 </v>
   <v>      -0.00185433       0.04474580      -0.00802312 </v>
   <v>      -0.00778799       0.02667806       0.00042421 </v>
   <v>      -0.02449947       0.03291911      -0.00006293 </v>
   <v>      -0.01092170       0.02711478      -0.00000385 </v>
   <v>       0.01454919       0.02632227      -0.00006419 </v>
   <v>       0.01723267       0.03398946      -0.00006219 </v>
   <v>      -0.00892066       0.00075877       0.00028564 </v>
   <v>       0.01266877       0.03586064       0.00042478 </v>
   <v>      -0.01600077       0.03861505       0.00029615 </v>
   <v>       0.00950028       0.00501102      -0.00006317 </v>
   <v>      -0.01533380       0.03599577      -0.00000799 </v>
   <v>       0.00095390       0.03079026      -0.00000785 </v>
   <v>       0.01142272       0.02550607      -0.00000455 </v>
   <v>       0.04813106       0.05842901      -0.00003134 </v>
   <v>      -0.02230175      -0.20051868      -0.00006385 </v>
   <v>      -0.00055722       0.11110341      -0.00006502 </v>
   <v>       0.02186722      -0.19861657      -0.00003272 </v>
   <v>      -0.04772713       0.06035481      -0.00000467 </v>
   <v>      -0.01093905       0.02630552      -0.00000894 </v>
   <v>      -0.00060199       0.00847016      -0.00006096 </v>
   <v>       0.02590467      -0.00832182      -0.00003506 </v>
   <v>       0.19057967       0.11182451      -0.00000339 </v>
   <v>       1.02315020      -1.56350885       0.00000141 </v>
   <v>      -1.02268853      -1.56295914       0.00000877 </v>
   <v>      -0.19017158       0.11381377      -0.00003407 </v>
   <v>      -0.02639496      -0.00654122      -0.00005962 </v>
   <v>       0.00664736      -0.03312257       0.00040094 </v>
   <v>      -0.01004979      -0.03607410       0.00031381 </v>
   <v>      -0.05792348      -0.06790353      -0.00006635 </v>
   <v>      -0.26934128       0.00874374      -0.00000589 </v>
   <v>       0.27129418       0.01062892      -0.00006346 </v>
   <v>       0.05862083      -0.06353315       0.00029275 </v>
   <v>       0.03471236       0.00816911      -0.00784659 </v>
   <v>      -0.00188988      -0.03253424      -0.00814584 </v>
   <v>      -0.03343898      -0.01640097       0.00043094 </v>
   <v>      -0.08323527      -0.01433551      -0.00006267 </v>
   <v>      -0.88447250       0.24377860      -0.00000522 </v>
   <v>       0.88839974       0.24491666      -0.00006921 </v>
   <v>       0.08820034      -0.01002028       0.00042650 </v>
   <v>       0.06205259       0.01502457      -0.00771133 </v>
   <v>      -0.34256861      -0.00654855      -0.06370101 </v>
   <v>       0.02046741      -0.00187646      -0.00781597 </v>
   <v>      -0.02713286       0.01720067       0.00028591 </v>
   <v>      -0.10837183       0.11906113      -0.00003115 </v>
   <v>       0.00221674       0.01622278      -0.00003293 </v>
   <v>       0.11534790       0.11896362       0.00029314 </v>
   <v>      -0.00027383      -0.11908409      -0.00002710 </v>
  </varray>
  <varray name="stress" >
   <v>     -10.60411221       0.02276329      -0.00076817 </v>
   <v>       0.02276329       3.03513251      -0.00001459 </v>
   <v>      -0.00076817      -0.00001460      -0.42570190 </v>
  </varray>
  <energy>
   <i name="e_fr_energy">   -845.65426666 </i>
   <i name="e_wo_entrp">   -845.65426666 </i>
   <i name="e_0_energy">     -0.00000000 </i>
  </energy>
  <time name="totalsc">   98.06  102.48</time>
  <eigenvalues>
   <array>
    <dimension dim="1">band</dimension>
    <dimension dim="2">kpoint</dimension>
    <dimension dim="3">spin</dimension>
    <field>eigene</field>
    <field>occ</field>
    <set>
     <set comment="spin 1">
      <set comment="kpoint 1">
       <r>  -22.5410    1.0000 </r>
       <r>  -22.0198    1.0000 </r>
       <r>  -21.7736    1.0000 </r>
       <r>  -21.7436    1.0000 </r>
       <r>  -21.6959    1.0000 </r>
       <r>  -21.6545    1.0000 </r>
       <r>  -21.6181    1.0000 </r>
       <r>  -21.2367    1.0000 </r>
       <r>  -21.0697    1.0000 </r>
       <r>  -21.0045    1.0000 </r>
       <r>  -20.9695    1.0000 </r>
       <r>  -20.9266    1.0000 </r>
       <r>  -20.8751    1.0000 </r>
       <r>  -20.7457    1.0000 </r>
       <r>  -20.7016    1.0000 </r>
       <r>  -20.6646    1.0000 </r>
       <r>  -20.5943    1.0000 </r>
       <r>  -20.5674    1.0000 </r>
       <r>  -20.4281    1.0000 </r>
       <r>  -19.9812    1.0000 </r>
       <r>  -19.9249    1.0000 </r>
       <r>  -19.8049    1.0000 </r>
       <r>  -19.7623    1.0000 </r>
       <r>  -19.7365    1.0000 </r>
       <r>  -19.7349    1.0000 </r>
       <r>  -19.7056    1.0000 </r>
       <r>  -19.6988    1.0000 </r>
       <r>  -19.6448    1.0000 </r>
       <r>  -19.6389    1.0000 </r>
       <r>  -19.6295    1.0000 </r>
       <r>  -19.4929    1.0000 </r>
       <r>  -19.4070    1.0000 </r>
       <r>  -19.3648    1.0000 </r>
       <r>  -19.3560    1.0000 </r>
       <r>  -19.2898    1.0000 </r>
       <r>  -19.2392    1.0000 </r>
       <r>  -19.1076    1.0000 </r>
       <r>  -18.9998    1.0000 </r>
       <r>  -18.9316    1.0000 </r>
       <r>  -18.8753    1.0000 </r>
       <r>  -18.8523    1.0000 </r>
       <r>  -18.8375    1.0000 </r>
       <r>  -18.7671    1.0000 </r>
       <r>  -18.7503    1.0000 </r>
       <r>  -18.7274    1.0000 </r>
       <r>  -18.7135    1.0000 </r>
       <r>  -18.6939    1.0000 </r>
       <r>  -18.4457    1.0000 </r>
       <r>  -14.1407    1.0000 </r>
       <r>  -13.1821    1.0000 </r>
       <r>  -13.1568    1.0000 </r>
       <r>  -13.1102    1.0000 </r>
       <r>  -13.1030    1.0000 </r>
       <r>  -13.0793    1.0000 </r>
       <r>  -13.0143    1.0000 </r>
       <r>  -12.9587    1.0000 </r>
       <r>  -12.9513    1.0000 </r>
       <r>  -12.9362    1.0000 </r>
       <r>  -12.8055    1.0000 </r>
       <r>  -12.7686    1.0000 </r>
       <r>  -12.6019    1.0000 </r>
       <r>  -12.5041    1.0000 </r>
       <r>  -12.4855    1.0000 </r>
       <r>  -12.3778    1.0000 </r>
       <r>  -12.3086    1.0000 </r>
       <r>  -12.2975    1.0000 </r>
       <r>  -12.1751    1.0000 </r>
       <r>  -11.9010    1.0000 </r>
       <r>  -11.8853    1.0000 </r>
       <r>  -11.7677    1.0000 </r>
       <r>  -11.7628    1.0000 </r>
       <r>  -11.7513    1.0000 </r>
       <r>  -11.7419    1.0000 </r>
       <r>  -11.6952    1.0000 </r>
       <r>  -11.6574    1.0000 </r>
       <r>  -11.6302    1.0000 </r>
       <r>  -11.5412    1.0000 </r>
       <r>  -11.4223    1.0000 </r>
       <r>  -11.2003    1.0000 </r>
       <r>  -11.1242    1.0000 </r>
       <r>  -11.0825    1.0000 </r>
       <r>  -11.0596    1.0000 </r>
       <r>  -10.9663    1.0000 </r>
       <r>  -10.9114    1.0000 </r>
       <r>  -10.6854    1.0000 </r>
       <r>  -10.4618    1.0000 </r>
       <r>  -10.4316    1.0000 </r>
       <r>  -10.3493    1.0000 </r>
       <r>  -10.2544    1.0000 </r>
       <r>  -10.2070    1.0000 </r>
       <r>   -9.8900    1.0000 </r>
       <r>   -9.7694    1.0000 </r>
       <r>   -9.7651    1.0000 </r>
       <r>   -9.7244    1.0000 </r>
       <r>   -9.6758    1.0000 </r>
       <r>   -9.5873    1.0000 </r>
       <r>   -9.5427    1.0000 </r>
       <r>   -9.4979    1.0000 </r>
       <r>   -9.4625    1.0000 </r>
       <r>   -9.3520    1.0000 </r>
       <r>   -9.3458    1.0000 </r>
       <r>   -9.2884    1.0000 </r>
       <r>   -9.2619    1.0000 </r>
       <r>   -9.2557    1.0000 </r>
       <r>   -9.2486    1.0000 </r>
       <r>   -9.2398    1.0000 </r>
       <r>   -9.2237    1.0000 </r>
       <r>   -9.2234    1.0000 </r>
       <r>   -9.2078    1.0000 </r>
       <r>   -9.2033    1.0000 </r>
       <r>   -9.1988    1.0000 </r>
       <r>   -9.1972    1.0000 </r>
       <r>   -9.1552    1.0000 </r>
       <r>   -9.1337    1.0000 </r>
       <r>   -9.1115    1.0000 </r>
       <r>   -9.1099    1.0000 </r>
       <r>   -9.1003    1.0000 </r>
       <r>   -9.0436    1.0000 </r>
       <r>   -8.9936    1.0000 </r>
       <r>   -8.8455    1.0000 </r>
       <r>   -8.7962    1.0000 </r>
       <r>   -8.6536    1.0000 </r>
       <r>   -8.5066    1.0000 </r>
       <r>   -8.4807    1.0000 </r>
       <r>   -8.4423    1.0000 </r>
       <r>   -8.3276    1.0000 </r>
       <r>   -8.2233    1.0000 </r>
       <r>   -8.2029    1.0000 </r>
       <r>   -8.1976    1.0000 </r>
       <r>   -8.1711    1.0000 </r>
       <r>   -8.1498    1.0000 </r>
       <r>   -8.1225    1.0000 </r>
       <r>   -8.0380    1.0000 </r>
       <r>   -7.9692    1.0000 </r>
       <r>   -7.9517    1.0000 </r>
       <r>   -7.8721    1.0000 </r>
       <r>   -7.8479    1.0000 </r>
       <r>   -7.8466    1.0000 </r>
       <r>   -7.8028    1.0000 </r>
       <r>   -7.7994    1.0000 </r>
       <r>   -7.7989    1.0000 </r>
       <r>   -7.7362    1.0000 </r>
       <r>   -7.7350    1.0000 </r>
       <r>   -7.7131    1.0000 </r>
       <r>   -7.6777    1.0000 </r>
       <r>   -7.6746    1.0000 </r>
       <r>   -7.6629    1.0000 </r>
       <r>   -7.6375    1.0000 </r>
       <r>   -7.6318    1.0000 </r>
       <r>   -7.4420    1.0000 </r>
       <r>   -7.4365    1.0000 </r>
       <r>   -7.4277    1.0000 </r>
       <r>   -7.3847    1.0000 </r>
       <r>   -7.3578    1.0000 </r>
       <r>   -7.2728    1.0000 </r>
       <r>   -6.8314    1.0000 </r>
       <r>   -6.7594    1.0000 </r>
       <r>   -6.6205    1.0000 </r>
       <r>   -6.6059    1.0000 </r>
       <r>   -6.5425    1.0000 </r>
       <r>   -6.5401    1.0000 </r>
       <r>   -6.5018    1.0000 </r>
       <r>   -6.4897    1.0000 </r>
       <r>   -6.4573    1.0000 </r>
       <r>   -6.4559    1.0000 </r>
       <r>   -6.4399    1.0000 </r>
       <r>   -6.4395    1.0000 </r>
       <r>   -6.4090    1.0000 </r>
       <r>   -6.4048    1.0000 </r>
       <r>   -6.3606    1.0000 </r>
       <r>   -6.3464    1.0000 </r>
       <r>   -6.3167    1.0000 </r>
       <r>   -6.1109    1.0000 </r>
       <r>   -5.9695    1.0000 </r>
       <r>   -5.9251    1.0000 </r>
       <r>   -5.8867    1.0000 </r>
       <r>   -5.8789    1.0000 </r>
       <r>   -5.8621    1.0000 </r>
       <r>   -5.7812    1.0000 </r>
       <r>   -5.7789    1.0000 </r>
       <r>   -5.5280    1.0000 </r>
       <r>   -5.2208    1.0000 </r>
       <r>   -5.1980    1.0000 </r>
       <r>   -5.1963    1.0000 </r>
       <r>   -5.1400    1.0000 </r>
       <r>   -5.1332    1.0000 </r>
       <r>   -5.1041    1.0000 </r>
       <r>   -5.0008    1.0000 </r>
       <r>   -4.9441    1.0000 </r>
       <r>   -4.9168    1.0000 </r>
       <r>   -4.9073    1.0000 </r>
       <r>   -4.8990    1.0000 </r>
       <r>   -4.7327    1.0000 </r>
       <r>   -1.3161    1.0000 </r>
       <r>   -1.2029    0.0000 </r>
       <r>    0.0582    0.0000 </r>
       <r>    0.2050    0.0000 </r>
       <r>    0.2405    0.0000 </r>
       <r>    0.2592    0.0000 </r>
       <r>    0.2604    0.0000 </r>
       <r>    0.3041    0.0000 </r>
       <r>    0.3069    0.0000 </r>
       <r>    0.3784    0.0000 </r>
       <r>    0.3948    0.0000 </r>
       <r>    0.4335    0.0000 </r>
       <r>    0.4787    0.0000 </r>
       <r>    0.5258    0.0000 </r>
       <r>    0.6096    0.0000 </r>
       <r>    0.7468    0.0000 </r>
       <r>    0.7484    0.0000 </r>
       <r>    0.7771    0.0000 </r>
       <r>    0.8061    0.0000 </r>
       <r>    0.8125    0.0000 </r>
       <r>    0.8283    0.0000 </r>
       <r>    0.8387    0.0000 </r>
       <r>    0.8582    0.0000 </r>
       <r>    0.8706    0.0000 </r>
       <r>    0.9790    0.0000 </r>
       <r>    1.0198    0.0000 </r>
       <r>    1.0611    0.0000 </r>
       <r>    1.1195    0.0000 </r>
       <r>    1.4953    0.0000 </r>
       <r>    1.6733    0.0000 </r>
       <r>    1.6971    0.0000 </r>
       <r>    1.7067    0.0000 </r>
       <r>    1.7239    0.0000 </r>
       <r>    1.7397    0.0000 </r>
       <r>    1.7442    0.0000 </r>
       <r>    1.8048    0.0000 </r>
       <r>    1.8072    0.0000 </r>
       <r>    1.8457    0.0000 </r>
       <r>    1.8495    0.0000 </r>
       <r>    1.8783    0.0000 </r>
       <r>    1.8812    0.0000 </r>
       <r>    1.9053    0.0000 </r>
       <r>    1.9078    0.0000 </r>
       <r>    1.9286    0.0000 </r>
       <r>    1.9845    0.0000 </r>
       <r>    2.0296    0.0000 </r>
       <r>    2.1009    0.0000 </r>
       <r>    2.1141    0.0000 </r>
       <r>    2.1184    0.0000 </r>
       <r>    2.1319    0.0000 </r>
       <r>    2.1351    0.0000 </r>
      </set>
     </set>
    </set>
   </array>
  </eigenvalues>
  <separator name="orbital magnetization" >
   <v name="MAGDIPOLOUT">      0.00000000      0.00000000      0.00000000</v>
  </separator>
  <dos>
   <i name="efermi">     -1.25680354 </i>
   <total>
    <array>
     <dimension dim="1">gridpoints</dimension>
     <dimension dim="2">spin</dimension>
     <field>energy</field>
     <field>total</field>
     <field>integrated</field>
     <set>
      <set comment="spin 1">
       <r>   -23.7748     0.0000     0.0000 </r>
       <r>   -23.6843     0.0000     0.0000 </r>
       <r>   -23.5938     0.0000     0.0000 </r>
       <r>   -23.5034     0.0000     0.0000 </r>
       <r>   -23.4129     0.0000     0.0000 </r>
       <r>   -23.3224     0.0000     0.0000 </r>
       <r>   -23.2319     0.0000     0.0000 </r>
       <r>   -23.1414     0.0000     0.0000 </r>
       <r>   -23.0510     0.0000     0.0000 </r>
       <r>   -22.9605     0.0000     0.0000 </r>
       <r>   -22.8700     0.0000     0.0000 </r>
       <r>   -22.7795     0.0000     0.0000 </r>
       <r>   -22.6891     0.0000     0.0000 </r>
       <r>   -22.5986     0.0000     0.0000 </r>
       <r>   -22.5081    22.1045     2.0000 </r>
       <r>   -22.4176     0.0000     2.0000 </r>
       <r>   -22.3271     0.0000     2.0000 </r>
       <r>   -22.2367     0.0000     2.0000 </r>
       <r>   -22.1462     0.0000     2.0000 </r>
       <r>   -22.0557     0.0000     2.0000 </r>
       <r>   -21.9652    22.1045     4.0000 </r>
       <r>   -21.8747     0.0000     4.0000 </r>
       <r>   -21.7843     1.4372     4.1300 </r>
       <r>   -21.6938    56.4337     9.2361 </r>
       <r>   -21.6033    43.8060    13.9635 </r>
       <r>   -21.5128     0.0000    14.0000 </r>
       <r>   -21.4223     0.0000    14.0000 </r>
       <r>   -21.3319     0.0000    14.0000 </r>
       <r>   -21.2414     5.5816    14.5050 </r>
       <r>   -21.1509     0.0000    16.0000 </r>
       <r>   -21.0604    20.0158    17.8110 </r>
       <r>   -20.9699    32.6142    20.9509 </r>
       <r>   -20.8795    27.9957    24.5330 </r>
       <r>   -20.7890     0.0000    26.0000 </r>
       <r>   -20.6985    36.8637    29.3354 </r>
       <r>   -20.6080    22.6868    32.0527 </r>
       <r>   -20.5176    43.6268    36.0000 </r>
       <r>   -20.4271    12.3402    37.1165 </r>
       <r>   -20.3366     0.0000    38.0000 </r>
       <r>   -20.2461     0.0000    38.0000 </r>
       <r>   -20.1556     0.0000    38.0000 </r>
       <r>   -20.0652     0.0000    38.0000 </r>
       <r>   -19.9747    18.1554    39.6427 </r>
       <r>   -19.8842    22.1045    42.0000 </r>
       <r>   -19.7937    20.8372    43.8853 </r>
       <r>   -19.7032    86.1740    51.7970 </r>
       <r>   -19.6128    66.1164    59.9822 </r>
       <r>   -19.5223     0.0004    60.0000 </r>
       <r>   -19.4318    22.1092    62.0005 </r>
       <r>   -19.3413    65.8842    67.9616 </r>
       <r>   -19.2508    23.1968    70.0988 </r>
       <r>   -19.1604    21.0123    72.0000 </r>
       <r>   -19.0699    22.1045    74.0000 </r>
       <r>   -18.9794    22.0617    75.9961 </r>
       <r>   -18.8889    22.7077    78.0546 </r>
       <r>   -18.7984    65.7106    84.0000 </r>
       <r>   -18.7080    84.1168    91.6108 </r>
       <r>   -18.6175    21.5835    94.0000 </r>
       <r>   -18.5270     0.0000    94.0000 </r>
       <r>   -18.4365    19.9275    95.8030 </r>
       <r>   -18.3461     0.0000    96.0000 </r>
       <r>   -18.2556     0.0000    96.0000 </r>
       <r>   -18.1651     0.0000    96.0000 </r>
       <r>   -18.0746     0.0000    96.0000 </r>
       <r>   -17.9841     0.0000    96.0000 </r>
       <r>   -17.8937     0.0000    96.0000 </r>
       <r>   -17.8032     0.0000    96.0000 </r>
       <r>   -17.7127     0.0000    96.0000 </r>
       <r>   -17.6222     0.0000    96.0000 </r>
       <r>   -17.5317     0.0000    96.0000 </r>
       <r>   -17.4413     0.0000    96.0000 </r>
       <r>   -17.3508     0.0000    96.0000 </r>
       <r>   -17.2603     0.0000    96.0000 </r>
       <r>   -17.1698     0.0000    96.0000 </r>
       <r>   -17.0793     0.0000    96.0000 </r>
       <r>   -16.9889     0.0000    96.0000 </r>
       <r>   -16.8984     0.0000    96.0000 </r>
       <r>   -16.8079     0.0000    96.0000 </r>
       <r>   -16.7174     0.0000    96.0000 </r>
       <r>   -16.6269     0.0000    96.0000 </r>
       <r>   -16.5365     0.0000    96.0000 </r>
       <r>   -16.4460     0.0000    96.0000 </r>
       <r>   -16.3555     0.0000    96.0000 </r>
       <r>   -16.2650     0.0000    96.0000 </r>
       <r>   -16.1746     0.0000    96.0000 </r>
       <r>   -16.0841     0.0000    96.0000 </r>
       <r>   -15.9936     0.0000    96.0000 </r>
       <r>   -15.9031     0.0000    96.0000 </r>
       <r>   -15.8126     0.0000    96.0000 </r>
       <r>   -15.7222     0.0000    96.0000 </r>
       <r>   -15.6317     0.0000    96.0000 </r>
       <r>   -15.5412     0.0000    96.0000 </r>
       <r>   -15.4507     0.0000    96.0000 </r>
       <r>   -15.3602     0.0000    96.0000 </r>
       <r>   -15.2698     0.0000    96.0000 </r>
       <r>   -15.1793     0.0000    96.0000 </r>
       <r>   -15.0888     0.0000    96.0000 </r>
       <r>   -14.9983     0.0000    96.0000 </r>
       <r>   -14.9078     0.0000    96.0000 </r>
       <r>   -14.8174     0.0000    96.0000 </r>
       <r>   -14.7269     0.0000    96.0000 </r>
       <r>   -14.6364     0.0000    96.0000 </r>
       <r>   -14.5459     0.0000    96.0000 </r>
       <r>   -14.4554     0.0000    96.0000 </r>
       <r>   -14.3650     0.0000    96.0000 </r>
       <r>   -14.2745     0.0000    96.0000 </r>
       <r>   -14.1840     0.0000    96.0000 </r>
       <r>   -14.0935    22.1045    98.0000 </r>
       <r>   -14.0031     0.0000    98.0000 </r>
       <r>   -13.9126     0.0000    98.0000 </r>
       <r>   -13.8221     0.0000    98.0000 </r>
       <r>   -13.7316     0.0000    98.0000 </r>
       <r>   -13.6411     0.0000    98.0000 </r>
       <r>   -13.5507     0.0000    98.0000 </r>
       <r>   -13.4602     0.0000    98.0000 </r>
       <r>   -13.3697     0.0000    98.0000 </r>
       <r>   -13.2792     0.0000    98.0000 </r>
       <r>   -13.1887     3.8605    98.3493 </r>
       <r>   -13.0983    59.8594   105.4160 </r>
       <r>   -13.0078    40.1735   109.6423 </r>
       <r>   -12.9173    66.2317   115.9926 </r>
       <r>   -12.8268     0.0285   116.0026 </r>
       <r>   -12.7363    44.1805   120.0000 </r>
       <r>   -12.6459     0.0000   120.0000 </r>
       <r>   -12.5554    22.1045   122.0000 </r>
       <r>   -12.4649    44.1694   125.9964 </r>
       <r>   -12.3744    15.0987   127.3661 </r>
       <r>   -12.2839    43.5858   131.9436 </r>
       <r>   -12.1935     0.1033   132.0093 </r>
       <r>   -12.1030    22.0013   134.0000 </r>
       <r>   -12.0125     0.0000   134.0000 </r>
       <r>   -11.9220     0.0328   134.0030 </r>
       <r>   -11.8316    44.1762   138.0000 </r>
       <r>   -11.7411    76.6946   144.9393 </r>
       <r>   -11.6506    40.5314   149.6672 </r>
       <r>   -11.5601    22.1424   152.0074 </r>
       <r>   -11.4696    22.0233   154.0000 </r>
       <r>   -11.3792    22.1045   156.0000 </r>
       <r>   -11.2887     0.0000   156.0000 </r>
       <r>   -11.1982    13.6459   157.2347 </r>
       <r>   -11.1077    21.8886   159.9805 </r>
       <r>   -11.0172    44.2050   164.0000 </r>
       <r>   -10.9268    22.4343   166.0298 </r>
       <r>   -10.8363    21.7748   168.0000 </r>
       <r>   -10.7458     0.0000   168.0000 </r>
       <r>   -10.6553    22.1043   170.0000 </r>
       <r>   -10.5648     0.0000   170.0000 </r>
       <r>   -10.4744     0.8418   170.0762 </r>
       <r>   -10.3839    43.3673   174.0000 </r>
       <r>   -10.2934    22.1045   176.0000 </r>
       <r>   -10.2029    37.9299   179.4319 </r>
       <r>   -10.1124     0.0000   180.0000 </r>
       <r>   -10.0220     0.0000   180.0000 </r>
       <r>    -9.9315     0.0000   180.0000 </r>
       <r>    -9.8410    22.1045   182.0000 </r>
       <r>    -9.7505    43.6872   185.9528 </r>
       <r>    -9.6601    43.9158   189.9737 </r>
       <r>    -9.5696    21.9690   191.9877 </r>
       <r>    -9.4791    44.3301   196.0111 </r>
       <r>    -9.3886    21.8956   198.0000 </r>
       <r>    -9.2981    46.0811   202.1694 </r>
       <r>    -9.2077   153.1565   217.8575 </r>
       <r>    -9.1172    52.1925   228.7223 </r>
       <r>    -9.0267    43.8325   235.9831 </r>
       <r>    -8.9362    22.1045   238.0000 </r>
       <r>    -8.8457    10.6940   238.9676 </r>
       <r>    -8.7553    22.1045   242.0000 </r>
       <r>    -8.6648     1.2504   242.1131 </r>
       <r>    -8.5743    20.8541   244.0000 </r>
       <r>    -8.4838    29.3966   246.6598 </r>
       <r>    -8.3933    22.1045   250.0000 </r>
       <r>    -8.3029    22.0994   251.9995 </r>
       <r>    -8.2124    23.1339   254.0931 </r>
       <r>    -8.1219    77.6974   263.0668 </r>
       <r>    -8.0314    18.2080   265.6474 </r>
       <r>    -7.9410    42.8051   269.8730 </r>
       <r>    -7.8505    36.3834   273.2919 </r>
       <r>    -7.7600    66.3266   282.0012 </r>
       <r>    -7.6695   106.4968   291.6369 </r>
       <r>    -7.5790    44.2090   298.0000 </r>
       <r>    -7.4886     0.0000   298.0000 </r>
       <r>    -7.3981    66.9551   304.0580 </r>
       <r>    -7.3076    43.5673   308.0000 </r>
       <r>    -7.2171    22.1045   310.0000 </r>
       <r>    -7.1266     0.0000   310.0000 </r>
       <r>    -7.0362     0.0000   310.0000 </r>
       <r>    -6.9457     0.0000   310.0000 </r>
       <r>    -6.8552     0.0083   310.0008 </r>
       <r>    -6.7647    27.1045   312.4531 </r>
       <r>    -6.6742     0.0000   314.0000 </r>
       <r>    -6.5838    44.1899   317.9983 </r>
       <r>    -6.4933    70.5348   324.3819 </r>
       <r>    -6.4028   119.8230   336.8415 </r>
       <r>    -6.3123    60.3512   343.4605 </r>
       <r>    -6.2218     0.0000   344.0000 </r>
       <r>    -6.1314     0.0420   344.0038 </r>
       <r>    -6.0409    22.0625   346.0000 </r>
       <r>    -5.9504    22.0323   347.9935 </r>
       <r>    -5.8599    79.9012   355.2297 </r>
       <r>    -5.7695    41.1543   359.7236 </r>
       <r>    -5.6790     0.0000   360.0000 </r>
       <r>    -5.5885     0.0000   360.0000 </r>
       <r>    -5.4980    22.1043   362.0000 </r>
       <r>    -5.4075     0.0000   362.0000 </r>
       <r>    -5.3171     0.0000   362.0000 </r>
       <r>    -5.2266     4.5567   362.4123 </r>
       <r>    -5.1361    67.3683   370.0955 </r>
       <r>    -5.0456    22.1045   374.0000 </r>
       <r>    -4.9551    23.4322   376.1201 </r>
       <r>    -4.8647    87.0905   384.0000 </r>
       <r>    -4.7742     0.0000   384.0000 </r>
       <r>    -4.6837    22.1045   386.0000 </r>
       <r>    -4.5932     0.0000   386.0000 </r>
       <r>    -4.5027     0.0000   386.0000 </r>
       <r>    -4.4123     0.0000   386.0000 </r>
       <r>    -4.3218     0.0000   386.0000 </r>
       <r>    -4.2313     0.0000   386.0000 </r>
       <r>    -4.1408     0.0000   386.0000 </r>
       <r>    -4.0503     0.0000   386.0000 </r>
       <r>    -3.9599     0.0000   386.0000 </r>
       <r>    -3.8694     0.0000   386.0000 </r>
       <r>    -3.7789     0.0000   386.0000 </r>
       <r>    -3.6884     0.0000   386.0000 </r>
       <r>    -3.5980     0.0000   386.0000 </r>
       <r>    -3.5075     0.0000   386.0000 </r>
       <r>    -3.4170     0.0000   386.0000 </r>
       <r>    -3.3265     0.0000   386.0000 </r>
       <r>    -3.2360     0.0000   386.0000 </r>
       <r>    -3.1456     0.0000   386.0000 </r>
       <r>    -3.0551     0.0000   386.0000 </r>
       <r>    -2.9646     0.0000   386.0000 </r>
       <r>    -2.8741     0.0000   386.0000 </r>
       <r>    -2.7836     0.0000   386.0000 </r>
       <r>    -2.6932     0.0000   386.0000 </r>
       <r>    -2.6027     0.0000   386.0000 </r>
       <r>    -2.5122     0.0000   386.0000 </r>
       <r>    -2.4217     0.0000   386.0000 </r>
       <r>    -2.3312     0.0000   386.0000 </r>
       <r>    -2.2408     0.0000   386.0000 </r>
       <r>    -2.1503     0.0000   386.0000 </r>
       <r>    -2.0598     0.0000   386.0000 </r>
       <r>    -1.9693     0.0000   386.0000 </r>
       <r>    -1.8788     0.0000   386.0000 </r>
       <r>    -1.7884     0.0000   386.0000 </r>
       <r>    -1.6979     0.0000   386.0000 </r>
       <r>    -1.6074     0.0000   386.0000 </r>
       <r>    -1.5169     0.0000   386.0000 </r>
       <r>    -1.4265     0.0000   386.0000 </r>
       <r>    -1.3360     0.0541   386.0049 </r>
       <r>    -1.2455    22.0505   388.0000 </r>
       <r>    -1.1550    22.1045   390.0000 </r>
       <r>    -1.0645     0.0000   390.0000 </r>
       <r>    -0.9741     0.0000   390.0000 </r>
       <r>    -0.8836     0.0000   390.0000 </r>
       <r>    -0.7931     0.0000   390.0000 </r>
       <r>    -0.7026     0.0000   390.0000 </r>
       <r>    -0.6121     0.0000   390.0000 </r>
       <r>    -0.5217     0.0000   390.0000 </r>
       <r>    -0.4312     0.0000   390.0000 </r>
       <r>    -0.3407     0.0000   390.0000 </r>
       <r>    -0.2502     0.0000   390.0000 </r>
       <r>    -0.1597     0.0000   390.0000 </r>
       <r>    -0.0693     0.0000   390.0000 </r>
       <r>     0.0212     0.0000   390.0000 </r>
       <r>     0.1117    22.1045   392.0000 </r>
       <r>     0.2022     7.6144   392.6889 </r>
       <r>     0.2927    67.9658   400.1495 </r>
       <r>     0.3831    60.2212   405.5983 </r>
       <r>     0.4736    48.3525   410.4726 </r>
       <r>     0.5641    22.1045   414.0000 </r>
       <r>     0.6546    22.1045   416.0000 </r>
       <r>     0.7450    15.9224   417.4406 </r>
       <r>     0.8355    92.2592   428.3475 </r>
       <r>     0.9260    44.1942   434.0000 </r>
       <r>     1.0165    29.1366   436.6363 </r>
       <r>     1.1070    22.9410   440.0757 </r>
       <r>     1.1974    21.2680   442.0000 </r>
       <r>     1.2879     0.0000   442.0000 </r>
       <r>     1.3784     0.0000   442.0000 </r>
       <r>     1.4689     0.0021   442.0002 </r>
       <r>     1.5594    22.1025   444.0000 </r>
       <r>     1.6498     0.0100   444.0009 </r>
       <r>     1.7403   106.3728   453.6254 </r>
       <r>     1.8308    44.6696   460.0417 </r>
       <r>     1.9213   134.6000   472.2212 </r>
       <r>     2.0118    22.2307   476.0114 </r>
       <r>     2.1022    35.9905   479.2679 </r>
       <r>     2.1927    87.1346   488.0000 </r>
       <r>     2.2832     0.0000   488.0000 </r>
       <r>     2.3737     0.0000   488.0000 </r>
       <r>     2.4642     0.0000   488.0000 </r>
       <r>     2.5546     0.0000   488.0000 </r>
       <r>     2.6451     0.0000   488.0000 </r>
       <r>     2.7356     0.0000   488.0000 </r>
       <r>     2.8261     0.0000   488.0000 </r>
       <r>     2.9165     0.0000   488.0000 </r>
       <r>     3.0070     0.0000   488.0000 </r>
       <r>     3.0975     0.0000   488.0000 </r>
       <r>     3.1880     0.0000   488.0000 </r>
       <r>     3.2785     0.0000   488.0000 </r>
       <r>     3.3689     0.0000   488.0000 </r>
      </set>
     </set>
    </array>
   </total>
  </dos>
 </calculation>
 <structure name="finalpos" >
  <crystal>
   <varray name="basis" >
    <v>      17.59966831       0.00000000       0.00000000 </v>
    <v>      -8.79983416      15.24175986       0.00000000 </v>
    <v>       0.00000000       0.00000000      19.92151445 </v>
   </varray>
   <i name="volume">   5343.94461817 </i>
   <varray name="rec_basis" >
    <v>       0.05681925       0.03280461       0.00000000 </v>
    <v>       0.00000000       0.06560922       0.00000000 </v>
    <v>       0.00000000       0.00000000       0.05019699 </v>
   </varray>
  </crystal>
  <varray name="positions" >
   <v>       0.99943010       0.00005992       0.50000000 </v>
   <v>       0.14164706       0.99871895       0.50000000 </v>
   <v>       0.28492260       0.99841663       0.50000000 </v>
   <v>       0.42850047       0.99871895       0.50000000 </v>
   <v>       0.57205839       0.00005992       0.50000000 </v>
   <v>       0.71530655       0.00214292       0.50000000 </v>
   <v>       0.85826494       0.00214292       0.50000000 </v>
   <v>       0.00080792       0.14408264       0.50000000 </v>
   <v>       0.14259355       0.14244783       0.50000000 </v>
   <v>       0.28470221       0.14112972       0.50000000 </v>
   <v>       0.42785608       0.14112972       0.50000000 </v>
   <v>       0.57128286       0.14244783       0.50000000 </v>
   <v>       0.71470329       0.14408264       0.50000000 </v>
   <v>       0.85805263       0.14467669       0.50000000 </v>
   <v>       0.00095476       0.28713011       0.50000000 </v>
   <v>       0.14372552       0.28645370       0.50000000 </v>
   <v>       0.28540977       0.28469374       0.50000000 </v>
   <v>       0.42724431       0.28306005       0.50000000 </v>
   <v>       0.57071254       0.28469374       0.50000000 </v>
   <v>       0.71415674       0.28645370       0.50000000 </v>
   <v>       0.85760392       0.28713011       0.50000000 </v>
   <v>       0.00054479       0.42966101       0.50000000 </v>
   <v>       0.14422690       0.42957551       0.50000000 </v>
   <v>       0.28730213       0.42918005       0.50000000 </v>
   <v>       0.42797654       0.42569726       0.50000000 </v>
   <v>       0.56914930       0.42569726       0.50000000 </v>
   <v>       0.71330650       0.42918005       0.50000000 </v>
   <v>       0.85677719       0.42957551       0.50000000 </v>
   <v>       0.99928255       0.57181462       0.50000000 </v>
   <v>       0.14396064       0.57181462       0.50000000 </v>
   <v>       0.28862787       0.57181625       0.50000000 </v>
   <v>       0.43313209       0.57215564       0.50000000 </v>
   <v>       0.71045212       0.57215564       0.50000000 </v>
   <v>       0.85461695       0.57181625       0.50000000 </v>
   <v>       0.99707234       0.71370518       0.50000000 </v>
   <v>       0.14255519       0.71368182       0.50000000 </v>
   <v>       0.28806142       0.71370518       0.50000000 </v>
   <v>       0.43464191       0.71382540       0.50000000 </v>
   <v>       0.58510826       0.71626937       0.50000000 </v>
   <v>       0.70258968       0.71626937       0.50000000 </v>
   <v>       0.85061206       0.71382540       0.50000000 </v>
   <v>       0.99777175       0.85613493       0.50000000 </v>
   <v>       0.14160898       0.85591288       0.50000000 </v>
   <v>       0.28573247       0.85591288       0.50000000 </v>
   <v>       0.42979175       0.85613493       0.50000000 </v>
   <v>       0.57342541       0.85758690       0.50000000 </v>
   <v>       0.71640633       0.86138410       0.50000000 </v>
   <v>       0.85559006       0.85758690       0.50000000 </v>
   <v>       0.04754270       0.09547788       0.50000000 </v>
   <v>       0.18957833       0.09405657       0.50000000 </v>
   <v>       0.33254182       0.09365506       0.50000000 </v>
   <v>       0.47590681       0.09405657       0.50000000 </v>
   <v>       0.61936376       0.09547788       0.50000000 </v>
   <v>       0.76280004       0.09719274       0.50000000 </v>
   <v>       0.90582126       0.09719274       0.50000000 </v>
   <v>       0.04854983       0.23934281       0.50000000 </v>
   <v>       0.19048138       0.23782962       0.50000000 </v>
   <v>       0.33234878       0.23634667       0.50000000 </v>
   <v>       0.47542646       0.23634667       0.50000000 </v>
   <v>       0.61877681       0.23782962       0.50000000 </v>
   <v>       0.76222155       0.23934281       0.50000000 </v>
   <v>       0.90562797       0.23982737       0.50000000 </v>
   <v>       0.04871288       0.38232824       0.50000000 </v>
   <v>       0.19188940       0.38184213       0.50000000 </v>
   <v>       0.33352206       0.38013969       0.50000000 </v>
   <v>       0.47472270       0.37801683       0.50000000 </v>
   <v>       0.61804620       0.38013969       0.50000000 </v>
   <v>       0.76138130       0.38184213       0.50000000 </v>
   <v>       0.90504393       0.38232824       0.50000000 </v>
   <v>       0.04810654       0.52478452       0.50000000 </v>
   <v>       0.19263929       0.52476864       0.50000000 </v>
   <v>       0.33696521       0.52455433       0.50000000 </v>
   <v>       0.47833704       0.52146721       0.50000000 </v>
   <v>       0.61455874       0.52146721       0.50000000 </v>
   <v>       0.75901769       0.52455433       0.50000000 </v>
   <v>       0.90355792       0.52476864       0.50000000 </v>
   <v>       0.04642473       0.66685228       0.50000000 </v>
   <v>       0.19185612       0.66685228       0.50000000 </v>
   <v>       0.33777931       0.66688794       0.50000000 </v>
   <v>       0.48615700       0.66710760       0.50000000 </v>
   <v>       0.75237918       0.66710760       0.50000000 </v>
   <v>       0.90053720       0.66688794       0.50000000 </v>
   <v>       0.04582562       0.80879365       0.50000000 </v>
   <v>       0.19009580       0.80876303       0.50000000 </v>
   <v>       0.33439660       0.80879365       0.50000000 </v>
   <v>       0.47844872       0.80897069       0.50000000 </v>
   <v>       0.62209487       0.81129474       0.50000000 </v>
   <v>       0.76062845       0.81129474       0.50000000 </v>
   <v>       0.90195054       0.80897069       0.50000000 </v>
   <v>       0.04629157       0.95154386       0.50000000 </v>
   <v>       0.18985910       0.95113037       0.50037619 </v>
   <v>       0.33307603       0.95113037       0.50000000 </v>
   <v>       0.47668087       0.95154386       0.50000000 </v>
   <v>       0.62015751       0.95313740       0.50000000 </v>
   <v>       0.76355772       0.95568687       0.50000000 </v>
   <v>       0.90440847       0.95313740       0.50000000 </v>
   <v>       0.56830873       0.56518888       0.50000000 </v>
  </varray>
 </structure>
</modeling>
