<?xml version="1.0" encoding="ISO-8859-1"?>
<modeling>
 <generator>
  <i name="program" type="string">vasp </i>
  <i name="version" type="string">5.4.4.18Apr17-6-g9f103f2a35  </i>
  <i name="subversion" type="string">(build Oct 18 2020 22:16:12) gamma-only         parallel </i>
  <i name="platform" type="string">UA-vaughan-2020a </i>
  <i name="date" type="string">2023 03 21 </i>
  <i name="time" type="string">22:18:20 </i>
 </generator>
 <incar>
  <i type="string" name="PREC">accurate</i>
  <i type="int" name="IALGO">    38</i>
  <i type="logical" name="ADDGRID"> T  </i>
  <i type="int" name="NELMIN">     5</i>
  <i type="int" name="IBRION">    -1</i>
  <i name="EDIFF">      0.00000001</i>
  <i name="EDIFFG">     -0.00000001</i>
  <i type="int" name="NSW">     0</i>
  <i type="int" name="ISIF">     2</i>
  <i name="ENCUT">    500.00000000</i>
  <i type="logical" name="LREAL"> F  </i>
  <i type="int" name="ISMEAR">     0</i>
  <i name="SIGMA">      0.01000000</i>
  <i type="logical" name="LWAVE"> F  </i>
  <i type="logical" name="LCHARG"> F  </i>
  <v type="int" name="KPOINT_BSE">    -1     0     0     0</v>
 </incar>
 <structure name="primitive_cell" >
  <crystal>
   <varray name="basis" >
    <v>      17.59966831       0.00000000       0.00000000 </v>
    <v>      -8.79983416      15.24175986       0.00000000 </v>
    <v>       0.00000000       0.00000000      19.92151445 </v>
   </varray>
   <i name="volume">   5343.94461817 </i>
   <varray name="rec_basis" >
    <v>       0.05681925       0.03280461       0.00000000 </v>
    <v>       0.00000000       0.06560922       0.00000000 </v>
    <v>       0.00000000       0.00000000       0.05019699 </v>
   </varray>
  </crystal>
  <varray name="positions" >
   <v>      -0.00056990       0.00005992      -0.50000000 </v>
   <v>      -0.09559153      -0.04686260      -0.50000000 </v>
   <v>       0.04629157      -0.04845614      -0.50000000 </v>
   <v>       0.04754270       0.09547788      -0.50000000 </v>
   <v>      -0.14173506       0.00214292      -0.50000000 </v>
   <v>       0.14259355       0.14244783      -0.50000000 </v>
   <v>       0.14164706      -0.00128105      -0.50000000 </v>
   <v>      -0.00222825      -0.14386507      -0.50000000 </v>
   <v>      -0.14440994      -0.14241310      -0.50000000 </v>
   <v>       0.00080792       0.14408264      -0.50000000 </v>
   <v>       0.18957833       0.09405657      -0.50000000 </v>
   <v>      -0.09417874       0.09719274      -0.50000000 </v>
   <v>      -0.09804946      -0.19102931      -0.50000000 </v>
   <v>      -0.23644228      -0.04431313      -0.50000000 </v>
   <v>      -0.23937155      -0.18870526      -0.50000000 </v>
   <v>       0.19048138       0.23782962      -0.50000000 </v>
   <v>       0.04582562      -0.19120635      -0.50000000 </v>
   <v>       0.18948291      -0.04886963      -0.50000000 </v>
   <v>       0.04854983       0.23934281      -0.50000000 </v>
   <v>      -0.28359367      -0.13861590      -0.50000000 </v>
   <v>       0.28470221       0.14112972      -0.50000000 </v>
   <v>      -0.14194737       0.14467669      -0.50000000 </v>
   <v>      -0.14938794      -0.28617460      -0.50000000 </v>
   <v>       0.14372552       0.28645370      -0.50000000 </v>
   <v>       0.14160898      -0.14465532      -0.50000000 </v>
   <v>      -0.28469345       0.00214292      -0.50000000 </v>
   <v>      -0.00292766      -0.28629482      -0.50000000 </v>
   <v>       0.28540977       0.28469374      -0.50000000 </v>
   <v>       0.00095476       0.28713011      -0.50000000 </v>
   <v>       0.28492260      -0.00158337      -0.50000000 </v>
   <v>      -0.29741032      -0.28373063      -0.50000000 </v>
   <v>      -0.09946280      -0.33311206      -0.50000000 </v>
   <v>       0.33234878       0.23634667      -0.50000000 </v>
   <v>      -0.23719996       0.09719274      -0.50000000 </v>
   <v>       0.33254182       0.09365506      -0.50000000 </v>
   <v>      -0.09437203       0.23982737      -0.50000000 </v>
   <v>      -0.24762082      -0.33289240      -0.50000000 </v>
   <v>      -0.37790513      -0.18870526      -0.50000000 </v>
   <v>       0.19188940       0.38184213      -0.50000000 </v>
   <v>       0.19009580      -0.19123697      -0.50000000 </v>
   <v>      -0.37984249      -0.04686260      -0.50000000 </v>
   <v>       0.04642473      -0.33314772      -0.50000000 </v>
   <v>       0.33352206       0.38013969      -0.50000000 </v>
   <v>       0.04871288       0.38232824      -0.50000000 </v>
   <v>       0.33307603      -0.04886963      -0.50000000 </v>
   <v>      -0.41489174      -0.28373063      -0.50000000 </v>
   <v>      -0.42657459      -0.14241310      -0.50000000 </v>
   <v>       0.42724431       0.28306005      -0.50000000 </v>
   <v>      -0.14538305      -0.42818375      -0.50000000 </v>
   <v>      -0.28529671       0.14408264      -0.50000000 </v>
   <v>      -0.28954788      -0.42784436      -0.50000000 </v>
   <v>       0.42785608       0.14112972      -0.50000000 </v>
   <v>      -0.14239608       0.28713011      -0.50000000 </v>
   <v>       0.14422690       0.42957551      -0.50000000 </v>
   <v>       0.28730213       0.42918005      -0.50000000 </v>
   <v>       0.14255519      -0.28631818      -0.50000000 </v>
   <v>       0.28573247      -0.14408712      -0.50000000 </v>
   <v>      -0.24098231      -0.47544567      -0.50000000 </v>
   <v>       0.47542646       0.23634667      -0.50000000 </v>
   <v>      -0.23777845       0.23934281      -0.50000000 </v>
   <v>       0.42797654       0.42569726      -0.50000000 </v>
   <v>      -0.42794161       0.00005992      -0.50000000 </v>
   <v>      -0.00071745      -0.42818538      -0.50000000 </v>
   <v>       0.00054479       0.42966101      -0.50000000 </v>
   <v>       0.42850047      -0.00128105      -0.50000000 </v>
   <v>      -0.43169127      -0.43481112      -0.50000000 </v>
   <v>       0.47472270       0.37801683      -0.50000000 </v>
   <v>      -0.09644208      -0.47523136      -0.50000000 </v>
   <v>      -0.38063624       0.09547788      -0.50000000 </v>
   <v>       0.47590681       0.09405657      -0.50000000 </v>
   <v>      -0.09495607       0.38232824      -0.50000000 </v>
   <v>      -0.38544126      -0.47853279      -0.50000000 </v>
   <v>       0.48615700      -0.33289240      -0.50000000 </v>
   <v>       0.47844872      -0.19102931      -0.50000000 </v>
   <v>       0.19263929      -0.47523136      -0.50000000 </v>
   <v>       0.33696521      -0.47544567      -0.50000000 </v>
   <v>       0.19185612      -0.33314772      -0.50000000 </v>
   <v>       0.33439660      -0.19120635      -0.50000000 </v>
   <v>       0.43464191      -0.28617460      -0.50000000 </v>
   <v>      -0.28669350       0.42918005      -0.50000000 </v>
   <v>      -0.42928746       0.28469374      -0.50000000 </v>
   <v>      -0.28584326       0.28645370      -0.50000000 </v>
   <v>       0.28862787      -0.42818375      -0.50000000 </v>
   <v>       0.28806142      -0.28629482      -0.50000000 </v>
   <v>       0.47668087      -0.04845614      -0.50000000 </v>
   <v>       0.47833704      -0.47853279      -0.50000000 </v>
   <v>       0.04810654      -0.47521548      -0.50000000 </v>
   <v>       0.43313209      -0.42784436      -0.50000000 </v>
   <v>       0.42979175      -0.14386507      -0.50000000 </v>
   <v>      -0.43085070       0.42569726      -0.50000000 </v>
   <v>      -0.14322281       0.42957551      -0.50000000 </v>
   <v>      -0.42871714       0.14244783      -0.50000000 </v>
   <v>       0.14396064      -0.42818538      -0.50000000 </v>
   <v>      -0.23861870       0.38184213      -0.50000000 </v>
   <v>      -0.38122319       0.23782962      -0.50000000 </v>
   <v>      -0.38195380       0.38013969      -0.50000000 </v>
   <v>       0.33777931      -0.33311206      -0.50000000 </v>
  </varray>
 </structure>
 <varray name="primitive_index" >
  <v type="int" >        1 </v>
  <v type="int" >       96 </v>
  <v type="int" >       90 </v>
  <v type="int" >       49 </v>
  <v type="int" >        7 </v>
  <v type="int" >        9 </v>
  <v type="int" >        2 </v>
  <v type="int" >       42 </v>
  <v type="int" >       48 </v>
  <v type="int" >        8 </v>
  <v type="int" >       50 </v>
  <v type="int" >       55 </v>
  <v type="int" >       89 </v>
  <v type="int" >       95 </v>
  <v type="int" >       88 </v>
  <v type="int" >       57 </v>
  <v type="int" >       83 </v>
  <v type="int" >       91 </v>
  <v type="int" >       56 </v>
  <v type="int" >       47 </v>
  <v type="int" >       10 </v>
  <v type="int" >       14 </v>
  <v type="int" >       41 </v>
  <v type="int" >       16 </v>
  <v type="int" >       43 </v>
  <v type="int" >        6 </v>
  <v type="int" >       35 </v>
  <v type="int" >       17 </v>
  <v type="int" >       15 </v>
  <v type="int" >        3 </v>
  <v type="int" >       40 </v>
  <v type="int" >       82 </v>
  <v type="int" >       58 </v>
  <v type="int" >       54 </v>
  <v type="int" >       51 </v>
  <v type="int" >       62 </v>
  <v type="int" >       81 </v>
  <v type="int" >       87 </v>
  <v type="int" >       64 </v>
  <v type="int" >       84 </v>
  <v type="int" >       94 </v>
  <v type="int" >       77 </v>
  <v type="int" >       65 </v>
  <v type="int" >       63 </v>
  <v type="int" >       92 </v>
  <v type="int" >       39 </v>
  <v type="int" >       46 </v>
  <v type="int" >       18 </v>
  <v type="int" >       34 </v>
  <v type="int" >       13 </v>
  <v type="int" >       33 </v>
  <v type="int" >       11 </v>
  <v type="int" >       21 </v>
  <v type="int" >       23 </v>
  <v type="int" >       24 </v>
  <v type="int" >       36 </v>
  <v type="int" >       44 </v>
  <v type="int" >       75 </v>
  <v type="int" >       59 </v>
  <v type="int" >       61 </v>
  <v type="int" >       25 </v>
  <v type="int" >        5 </v>
  <v type="int" >       29 </v>
  <v type="int" >       22 </v>
  <v type="int" >        4 </v>
  <v type="int" >       97 </v>
  <v type="int" >       66 </v>
  <v type="int" >       76 </v>
  <v type="int" >       53 </v>
  <v type="int" >       52 </v>
  <v type="int" >       69 </v>
  <v type="int" >       74 </v>
  <v type="int" >       80 </v>
  <v type="int" >       86 </v>
  <v type="int" >       71 </v>
  <v type="int" >       72 </v>
  <v type="int" >       78 </v>
  <v type="int" >       85 </v>
  <v type="int" >       38 </v>
  <v type="int" >       27 </v>
  <v type="int" >       19 </v>
  <v type="int" >       20 </v>
  <v type="int" >       31 </v>
  <v type="int" >       37 </v>
  <v type="int" >       93 </v>
  <v type="int" >       73 </v>
  <v type="int" >       70 </v>
  <v type="int" >       32 </v>
  <v type="int" >       45 </v>
  <v type="int" >       26 </v>
  <v type="int" >       28 </v>
  <v type="int" >       12 </v>
  <v type="int" >       30 </v>
  <v type="int" >       68 </v>
  <v type="int" >       60 </v>
  <v type="int" >       67 </v>
  <v type="int" >       79 </v>
 </varray>
 <kpoints>
  <generation param="Gamma">
   <v type="int" name="divisions">       1        1        1 </v>
   <v name="usershift">      0.00000000       0.00000000       0.00000000 </v>
   <v name="genvec1">      1.00000000      -0.00000000       0.00000000 </v>
   <v name="genvec2">      0.00000000       1.00000000       0.00000000 </v>
   <v name="genvec3">      0.00000000       0.00000000       1.00000000 </v>
   <v name="shift">      0.00000000       0.00000000       0.00000000 </v>
  </generation>
  <varray name="kpointlist" >
   <v>       0.00000000       0.00000000       0.00000000 </v>
  </varray>
  <varray name="weights" >
   <v>       1.00000000 </v>
  </varray>
 </kpoints>
 <parameters>
  <separator name="general" >
   <i type="string" name="SYSTEM">unknown system</i>
   <i type="logical" name="LCOMPAT"> F  </i>
  </separator>
  <separator name="electronic" >
   <i type="string" name="PREC">accura</i>
   <i name="ENMAX">    500.00000000</i>
   <i name="ENAUG">    644.87300000</i>
   <i name="EDIFF">      0.00000001</i>
   <i type="int" name="IALGO">    38</i>
   <i type="int" name="IWAVPR">    10</i>
   <i type="int" name="NBANDS">   244</i>
   <i name="NELECT">    388.00000000</i>
   <i type="int" name="TURBO">     0</i>
   <i type="int" name="IRESTART">     0</i>
   <i type="int" name="NREBOOT">     0</i>
   <i type="int" name="NMIN">     0</i>
   <i name="EREF">      0.00000000</i>
   <separator name="electronic smearing" >
    <i type="int" name="ISMEAR">     0</i>
    <i name="SIGMA">      0.01000000</i>
    <i name="KSPACING">      0.50000000</i>
    <i type="logical" name="KGAMMA"> T  </i>
   </separator>
   <separator name="electronic projectors" >
    <i type="logical" name="LREAL"> F  </i>
    <v name="ROPT">      0.00000000      0.00000000      0.00000000</v>
    <i type="int" name="LMAXPAW">  -100</i>
    <i type="int" name="LMAXMIX">     2</i>
    <i type="logical" name="NLSPLINE"> F  </i>
   </separator>
   <separator name="electronic startup" >
    <i type="int" name="ISTART">     0</i>
    <i type="int" name="ICHARG">     2</i>
    <i type="int" name="INIWAV">     1</i>
   </separator>
   <separator name="electronic spin" >
    <i type="int" name="ISPIN">     1</i>
    <i type="logical" name="LNONCOLLINEAR"> F  </i>
    <v name="MAGMOM">      1.00000000      1.00000000      1.00000000      1.00000000      1.00000000      1.00000000      1.00000000      1.00000000      1.00000000      1.00000000      1.00000000      1.00000000      1.00000000      1.00000000      1.00000000      1.00000000      1.00000000      1.00000000      1.00000000      1.00000000
      1.00000000      1.00000000      1.00000000      1.00000000      1.00000000      1.00000000      1.00000000      1.00000000      1.00000000      1.00000000      1.00000000      1.00000000      1.00000000      1.00000000      1.00000000      1.00000000      1.00000000      1.00000000      1.00000000      1.00000000
      1.00000000      1.00000000      1.00000000      1.00000000      1.00000000      1.00000000      1.00000000      1.00000000      1.00000000      1.00000000      1.00000000      1.00000000      1.00000000      1.00000000      1.00000000      1.00000000      1.00000000      1.00000000      1.00000000      1.00000000
      1.00000000      1.00000000      1.00000000      1.00000000      1.00000000      1.00000000      1.00000000      1.00000000      1.00000000      1.00000000      1.00000000      1.00000000      1.00000000      1.00000000      1.00000000      1.00000000      1.00000000      1.00000000      1.00000000      1.00000000
      1.00000000      1.00000000      1.00000000      1.00000000      1.00000000      1.00000000      1.00000000      1.00000000      1.00000000      1.00000000      1.00000000      1.00000000      1.00000000      1.00000000      1.00000000      1.00000000      1.00000000</v>
    <i name="NUPDOWN">     -1.00000000</i>
    <i type="logical" name="LSORBIT"> F  </i>
    <v name="SAXIS">      0.00000000      0.00000000      1.00000000</v>
    <i type="logical" name="LSPIRAL"> F  </i>
    <v name="QSPIRAL">      0.00000000      0.00000000      0.00000000</v>
    <i type="logical" name="LZEROZ"> F  </i>
   </separator>
   <separator name="electronic exchange-correlation" >
    <i type="logical" name="LASPH"> F  </i>
    <i type="logical" name="LMETAGGA"> F  </i>
   </separator>
   <separator name="electronic convergence" >
    <i type="int" name="NELM">    60</i>
    <i type="int" name="NELMDL">    -5</i>
    <i type="int" name="NELMIN">     5</i>
    <i name="ENINI">    500.00000000</i>
    <separator name="electronic convergence detail" >
     <i type="logical" name="LDIAG"> T  </i>
     <i type="logical" name="LSUBROT"> F  </i>
     <i name="WEIMIN">      0.00000000</i>
     <i name="EBREAK">      0.00000000</i>
     <i name="DEPER">      0.30000000</i>
     <i type="int" name="NRMM">     4</i>
     <i name="TIME">      0.40000000</i>
    </separator>
   </separator>
   <separator name="electronic mixer" >
    <i name="AMIX">      0.40000000</i>
    <i name="BMIX">      1.00000000</i>
    <i name="AMIN">      0.10000000</i>
    <i name="AMIX_MAG">      1.60000000</i>
    <i name="BMIX_MAG">      1.00000000</i>
    <separator name="electronic mixer details" >
     <i type="int" name="IMIX">     4</i>
     <i type="logical" name="MIXFIRST"> F  </i>
     <i type="int" name="MAXMIX">   -45</i>
     <i name="WC">    100.00000000</i>
     <i type="int" name="INIMIX">     1</i>
     <i type="int" name="MIXPRE">     1</i>
     <i type="int" name="MREMOVE">     5</i>
    </separator>
   </separator>
   <separator name="electronic dipolcorrection" >
    <i type="logical" name="LDIPOL"> F  </i>
    <i type="logical" name="LMONO"> F  </i>
    <i type="int" name="IDIPOL">     0</i>
    <i name="EPSILON">      1.00000000</i>
    <v name="DIPOL">   -100.00000000   -100.00000000   -100.00000000</v>
    <i name="EFIELD">      0.00000000</i>
   </separator>
  </separator>
  <separator name="grids" >
   <i type="int" name="NGX">   128</i>
   <i type="int" name="NGY">   128</i>
   <i type="int" name="NGZ">   150</i>
   <i type="int" name="NGXF">   256</i>
   <i type="int" name="NGYF">   256</i>
   <i type="int" name="NGZF">   300</i>
   <i type="logical" name="ADDGRID"> T  </i>
  </separator>
  <separator name="ionic" >
   <i type="int" name="NSW">     0</i>
   <i type="int" name="IBRION">    -1</i>
   <i type="int" name="MDALGO">     0</i>
   <i type="int" name="ISIF">     2</i>
   <i name="PSTRESS">      0.00000000</i>
   <i name="EDIFFG">     -0.00000001</i>
   <i type="int" name="NFREE">     0</i>
   <i name="POTIM">      0.50000000</i>
   <i name="SMASS">     -3.00000000</i>
   <i name="SCALEE">      1.00000000</i>
  </separator>
  <separator name="ionic md" >
   <i name="TEBEG">      0.00010000</i>
   <i name="TEEND">      0.00010000</i>
   <i type="int" name="NBLOCK">     1</i>
   <i type="int" name="KBLOCK">     1</i>
   <i type="int" name="NPACO">   256</i>
   <i name="APACO">     16.00000000</i>
  </separator>
  <separator name="symmetry" >
   <i type="int" name="ISYM">     2</i>
   <i name="SYMPREC">      0.00001000</i>
  </separator>
  <separator name="dos" >
   <i type="int" name="LORBIT">     0</i>
   <v name="RWIGS">     -1.00000000     -1.00000000     -1.00000000</v>
   <i type="int" name="NEDOS">   301</i>
   <i name="EMIN">     10.00000000</i>
   <i name="EMAX">    -10.00000000</i>
   <i name="EFERMI">      0.00000000</i>
  </separator>
  <separator name="writing" >
   <i type="int" name="NWRITE">     2</i>
   <i type="logical" name="LWAVE"> F  </i>
   <i type="logical" name="LDOWNSAMPLE"> F  </i>
   <i type="logical" name="LCHARG"> F  </i>
   <i type="logical" name="LPARD"> F  </i>
   <i type="logical" name="LVTOT"> F  </i>
   <i type="logical" name="LVHAR"> F  </i>
   <i type="logical" name="LELF"> F  </i>
   <i type="logical" name="LOPTICS"> F  </i>
   <v name="STM">      0.00000000      0.00000000      0.00000000      0.00000000      0.00000000      0.00000000      0.00000000</v>
  </separator>
  <separator name="performance" >
   <i type="int" name="NPAR">     4</i>
   <i type="int" name="NSIM">     4</i>
   <i type="int" name="NBLK">    -1</i>
   <i type="logical" name="LPLANE"> T  </i>
   <i type="logical" name="LSCALAPACK"> T  </i>
   <i type="logical" name="LSCAAWARE"> F  </i>
   <i type="logical" name="LSCALU"> F  </i>
   <i type="logical" name="LASYNC"> F  </i>
   <i type="logical" name="LORBITALREAL"> F  </i>
  </separator>
  <separator name="miscellaneous" >
   <i type="int" name="IDIOT">     3</i>
   <i type="int" name="ISPECIAL">     0</i>
   <i type="logical" name="LMUSIC"> F  </i>
   <v name="POMASS">     10.81100000     14.00100000     12.01100000</v>
   <v name="DARWINR">      0.00000000      0.00000000      0.00000000</v>
   <v name="DARWINV">      1.00000000      1.00000000      1.00000000</v>
   <i type="logical" name="LCORR"> T  </i>
  </separator>
  <i type="logical" name="GGA_COMPAT"> T  </i>
  <i type="logical" name="LBERRY"> F  </i>
  <i type="int" name="ICORELEVEL">     0</i>
  <i type="logical" name="LDAU"> F  </i>
  <i type="int" name="I_CONSTRAINED_M">     0</i>
  <separator name="electronic exchange-correlation" >
   <i type="string" name="GGA">--</i>
   <i type="int" name="VOSKOWN">     0</i>
   <i type="logical" name="LHFCALC"> F  </i>
   <i type="string" name="PRECFOCK"></i>
   <i type="logical" name="LSYMGRAD"> F  </i>
   <i type="logical" name="LHFONE"> F  </i>
   <i type="logical" name="LRHFCALC"> F  </i>
   <i type="logical" name="LTHOMAS"> F  </i>
   <i type="logical" name="LMODELHF"> F  </i>
   <i name="ENCUT4O">     -1.00000000</i>
   <i type="int" name="EXXOEP">     0</i>
   <i type="int" name="FOURORBIT">     0</i>
   <i name="AEXX">      0.00000000</i>
   <i name="HFALPHA">      0.00000000</i>
   <i name="MCALPHA">      0.00000000</i>
   <i name="ALDAX">      1.00000000</i>
   <i name="AGGAX">      1.00000000</i>
   <i name="ALDAC">      1.00000000</i>
   <i name="AGGAC">      1.00000000</i>
   <i type="int" name="NKREDX">     1</i>
   <i type="int" name="NKREDY">     1</i>
   <i type="int" name="NKREDZ">     1</i>
   <i type="logical" name="SHIFTRED"> F  </i>
   <i type="logical" name="ODDONLY"> F  </i>
   <i type="logical" name="EVENONLY"> F  </i>
   <i type="int" name="LMAXFOCK">     0</i>
   <i type="int" name="NMAXFOCKAE">     0</i>
   <i type="logical" name="LFOCKAEDFT"> F  </i>
   <i name="HFSCREEN">      0.00000000</i>
   <i name="HFSCREENC">      0.00000000</i>
   <i type="int" name="NBANDSGWLOW">     0</i>
  </separator>
  <separator name="vdW DFT" >
   <i type="logical" name="LUSE_VDW"> F  </i>
   <i name="Zab_VDW">     -0.84910000</i>
   <i name="PARAM1">      0.12340000</i>
   <i name="PARAM2">      1.00000000</i>
   <i name="PARAM3">      0.00000000</i>
  </separator>
  <separator name="model GW" >
   <i type="int" name="MODEL_GW">     0</i>
   <i name="MODEL_EPS0">     33.05532754</i>
   <i name="MODEL_ALPHA">      1.00000000</i>
  </separator>
  <separator name="linear response parameters" >
   <i type="logical" name="LEPSILON"> F  </i>
   <i type="logical" name="LRPA"> F  </i>
   <i type="logical" name="LNABLA"> F  </i>
   <i type="logical" name="LVEL"> F  </i>
   <i type="int" name="KINTER">     0</i>
   <i name="CSHIFT">      0.10000000</i>
   <i name="OMEGAMAX">     -1.00000000</i>
   <i name="DEG_THRESHOLD">      0.00200000</i>
   <i name="RTIME">     -0.10000000</i>
   <i name="WPLASMAI">      0.00000000</i>
   <v name="DFIELD">      0.00000000      0.00000000      0.00000000</v>
   <v name="WPLASMA">      0.00000000      0.00000000      0.00000000      0.00000000      0.00000000      0.00000000      0.00000000      0.00000000      0.00000000</v>
  </separator>
  <separator name="orbital magnetization" >
   <i type="logical" name="NUCIND"> F  </i>
   <v name="MAGPOS">      0.00000000      0.00000000      0.00000000</v>
   <i type="logical" name="LNICSALL"> T  </i>
   <i type="logical" name="ORBITALMAG"> F  </i>
   <i type="logical" name="LMAGBLOCH"> F  </i>
   <i type="logical" name="LCHIMAG"> F  </i>
   <i type="logical" name="LGAUGE"> T  </i>
   <i type="int" name="MAGATOM">     0</i>
   <v name="MAGDIPOL">      0.00000000      0.00000000      0.00000000</v>
   <v name="AVECCONST">      0.00000000      0.00000000      0.00000000</v>
  </separator>
  <separator name="response functions" >
   <i type="logical" name="LADDER"> F  </i>
   <i type="logical" name="LRPAFORCE"> F  </i>
   <i type="logical" name="LFXC"> F  </i>
   <i type="logical" name="LHARTREE"> T  </i>
   <i type="int" name="IBSE">     0</i>
   <v type="int" name="KPOINT">    -1     0     0     0</v>
   <i type="logical" name="LTCTE"> F  </i>
   <i type="logical" name="LTETE"> F  </i>
   <i type="logical" name="LTRIPLET"> F  </i>
   <i type="logical" name="LFXCEPS"> F  </i>
   <i type="logical" name="LFXHEG"> F  </i>
   <i type="int" name="NATURALO">     2</i>
   <i type="logical" name="L2ORDER"> F  </i>
   <i type="logical" name="LMP2LT"> F  </i>
   <i type="logical" name="LUSEW"> F  </i>
   <i name="ENCUTGW">     -2.00000000</i>
   <i name="ENCUTGWSOFT">     -2.00000000</i>
   <i name="ENCUTLF">     -1.00000000</i>
   <i type="int" name="LMAXMP2">    -1</i>
   <i name="SCISSOR">      0.00000000</i>
   <i type="int" name="NOMEGA">     0</i>
   <i type="int" name="NOMEGAR">     0</i>
   <i type="int" name="NBANDSGW">    -1</i>
   <i type="int" name="NBANDSO">    -1</i>
   <i type="int" name="NBANDSV">    -1</i>
   <i type="int" name="NELM">     1</i>
   <i type="int" name="NELMHF">     1</i>
   <i type="int" name="DIM">     3</i>
   <i type="int" name="ANTIRES">     0</i>
   <i name="OMEGAMAX">    -30.00000000</i>
   <i name="OMEGAMIN">    -30.00000000</i>
   <i name="OMEGATL">   -200.00000000</i>
   <i type="int" name="OMEGAGRID">   140</i>
   <i name="CSHIFT">     -0.10000000</i>
   <i type="logical" name="SELFENERGY"> F  </i>
   <i type="logical" name="LSPECTRAL"> F  </i>
   <i type="logical" name="LSPECTRALGW"> F  </i>
   <i type="logical" name="LSINGLES"> F  </i>
   <i type="logical" name="LFERMIGW"> F  </i>
   <i type="logical" name="ODDONLYGW"> F  </i>
   <i type="logical" name="EVENONLYGW"> F  </i>
   <i type="int" name="NKREDLFX">     1</i>
   <i type="int" name="NKREDLFY">     1</i>
   <i type="int" name="NKREDLFZ">     1</i>
   <i type="int" name="MAXMEM">  2800</i>
   <i type="int" name="TELESCOPE">     0</i>
   <i type="int" name="TAUPAR">     1</i>
   <i type="int" name="OMEGAPAR">    -1</i>
   <i name="LAMBDA">      1.00000000</i>
  </separator>
  <separator name="External order field" >
   <i name="OFIELD_KAPPA">      0.00000000</i>
   <v name="OFIELD_K">      0.00000000      0.00000000      0.00000000</v>
   <i name="OFIELD_Q6_NEAR">      0.00000000</i>
   <i name="OFIELD_Q6_FAR">      0.00000000</i>
   <i name="OFIELD_A">      0.00000000</i>
  </separator>
 </parameters>
 <atominfo>
  <atoms>      97 </atoms>
  <types>       3 </types>
  <array name="atoms" >
   <dimension dim="1">ion</dimension>
   <field type="string">element</field>
   <field type="int">atomtype</field>
   <set>
    <rc><c>B </c><c>   1</c></rc>
    <rc><c>B </c><c>   1</c></rc>
    <rc><c>B </c><c>   1</c></rc>
    <rc><c>B </c><c>   1</c></rc>
    <rc><c>B </c><c>   1</c></rc>
    <rc><c>B </c><c>   1</c></rc>
    <rc><c>B </c><c>   1</c></rc>
    <rc><c>B </c><c>   1</c></rc>
    <rc><c>B </c><c>   1</c></rc>
    <rc><c>B </c><c>   1</c></rc>
    <rc><c>B </c><c>   1</c></rc>
    <rc><c>B </c><c>   1</c></rc>
    <rc><c>B </c><c>   1</c></rc>
    <rc><c>B </c><c>   1</c></rc>
    <rc><c>B </c><c>   1</c></rc>
    <rc><c>B </c><c>   1</c></rc>
    <rc><c>B </c><c>   1</c></rc>
    <rc><c>B </c><c>   1</c></rc>
    <rc><c>B </c><c>   1</c></rc>
    <rc><c>B </c><c>   1</c></rc>
    <rc><c>B </c><c>   1</c></rc>
    <rc><c>B </c><c>   1</c></rc>
    <rc><c>B </c><c>   1</c></rc>
    <rc><c>B </c><c>   1</c></rc>
    <rc><c>B </c><c>   1</c></rc>
    <rc><c>B </c><c>   1</c></rc>
    <rc><c>B </c><c>   1</c></rc>
    <rc><c>B </c><c>   1</c></rc>
    <rc><c>B </c><c>   1</c></rc>
    <rc><c>B </c><c>   1</c></rc>
    <rc><c>B </c><c>   1</c></rc>
    <rc><c>B </c><c>   1</c></rc>
    <rc><c>B </c><c>   1</c></rc>
    <rc><c>B </c><c>   1</c></rc>
    <rc><c>B </c><c>   1</c></rc>
    <rc><c>B </c><c>   1</c></rc>
    <rc><c>B </c><c>   1</c></rc>
    <rc><c>B </c><c>   1</c></rc>
    <rc><c>B </c><c>   1</c></rc>
    <rc><c>B </c><c>   1</c></rc>
    <rc><c>B </c><c>   1</c></rc>
    <rc><c>B </c><c>   1</c></rc>
    <rc><c>B </c><c>   1</c></rc>
    <rc><c>B </c><c>   1</c></rc>
    <rc><c>B </c><c>   1</c></rc>
    <rc><c>B </c><c>   1</c></rc>
    <rc><c>B </c><c>   1</c></rc>
    <rc><c>B </c><c>   1</c></rc>
    <rc><c>N </c><c>   2</c></rc>
    <rc><c>N </c><c>   2</c></rc>
    <rc><c>N </c><c>   2</c></rc>
    <rc><c>N </c><c>   2</c></rc>
    <rc><c>N </c><c>   2</c></rc>
    <rc><c>N </c><c>   2</c></rc>
    <rc><c>N </c><c>   2</c></rc>
    <rc><c>N </c><c>   2</c></rc>
    <rc><c>N </c><c>   2</c></rc>
    <rc><c>N </c><c>   2</c></rc>
    <rc><c>N </c><c>   2</c></rc>
    <rc><c>N </c><c>   2</c></rc>
    <rc><c>N </c><c>   2</c></rc>
    <rc><c>N </c><c>   2</c></rc>
    <rc><c>N </c><c>   2</c></rc>
    <rc><c>N </c><c>   2</c></rc>
    <rc><c>N </c><c>   2</c></rc>
    <rc><c>N </c><c>   2</c></rc>
    <rc><c>N </c><c>   2</c></rc>
    <rc><c>N </c><c>   2</c></rc>
    <rc><c>N </c><c>   2</c></rc>
    <rc><c>N </c><c>   2</c></rc>
    <rc><c>N </c><c>   2</c></rc>
    <rc><c>N </c><c>   2</c></rc>
    <rc><c>N </c><c>   2</c></rc>
    <rc><c>N </c><c>   2</c></rc>
    <rc><c>N </c><c>   2</c></rc>
    <rc><c>N </c><c>   2</c></rc>
    <rc><c>N </c><c>   2</c></rc>
    <rc><c>N </c><c>   2</c></rc>
    <rc><c>N </c><c>   2</c></rc>
    <rc><c>N </c><c>   2</c></rc>
    <rc><c>N </c><c>   2</c></rc>
    <rc><c>N </c><c>   2</c></rc>
    <rc><c>N </c><c>   2</c></rc>
    <rc><c>N </c><c>   2</c></rc>
    <rc><c>N </c><c>   2</c></rc>
    <rc><c>N </c><c>   2</c></rc>
    <rc><c>N </c><c>   2</c></rc>
    <rc><c>N </c><c>   2</c></rc>
    <rc><c>N </c><c>   2</c></rc>
    <rc><c>N </c><c>   2</c></rc>
    <rc><c>N </c><c>   2</c></rc>
    <rc><c>N </c><c>   2</c></rc>
    <rc><c>N </c><c>   2</c></rc>
    <rc><c>N </c><c>   2</c></rc>
    <rc><c>N </c><c>   2</c></rc>
    <rc><c>N </c><c>   2</c></rc>
    <rc><c>C </c><c>   3</c></rc>
   </set>
  </array>
  <array name="atomtypes" >
   <dimension dim="1">type</dimension>
   <field type="int">atomspertype</field>
   <field type="string">element</field>
   <field>mass</field>
   <field>valence</field>
   <field type="string">pseudopotential</field>
   <set>
    <rc><c>  48</c><c>B </c><c>     10.81100000</c><c>      3.00000000</c><c>  PAW_PBE B 06Sep2000                   </c></rc>
    <rc><c>  48</c><c>N </c><c>     14.00100000</c><c>      5.00000000</c><c>  PAW_PBE N 08Apr2002                   </c></rc>
    <rc><c>   1</c><c>C </c><c>     12.01100000</c><c>      4.00000000</c><c>  PAW_PBE C 08Apr2002                   </c></rc>
   </set>
  </array>
 </atominfo>
 <structure name="initialpos" >
  <crystal>
   <varray name="basis" >
    <v>      17.59966831       0.00000000       0.00000000 </v>
    <v>      -8.79983416      15.24175986       0.00000000 </v>
    <v>       0.00000000       0.00000000      19.92151445 </v>
   </varray>
   <i name="volume">   5343.94461817 </i>
   <varray name="rec_basis" >
    <v>       0.05681925       0.03280461       0.00000000 </v>
    <v>       0.00000000       0.06560922       0.00000000 </v>
    <v>       0.00000000       0.00000000       0.05019699 </v>
   </varray>
  </crystal>
  <varray name="positions" >
   <v>       0.99943010       0.00005992       0.50000000 </v>
   <v>       0.14164706       0.99871895       0.50000000 </v>
   <v>       0.28492260       0.99841663       0.50000000 </v>
   <v>       0.42850047       0.99871895       0.50000000 </v>
   <v>       0.57205839       0.00005992       0.50000000 </v>
   <v>       0.71530655       0.00214292       0.50000000 </v>
   <v>       0.85826494       0.00214292       0.50000000 </v>
   <v>       0.00080792       0.14408264       0.50000000 </v>
   <v>       0.14259355       0.14244783       0.50000000 </v>
   <v>       0.28470221       0.14112972       0.50000000 </v>
   <v>       0.42785608       0.14112972       0.50000000 </v>
   <v>       0.57128286       0.14244783       0.50000000 </v>
   <v>       0.71470329       0.14408264       0.50000000 </v>
   <v>       0.85805263       0.14467669       0.50000000 </v>
   <v>       0.00095476       0.28713011       0.50000000 </v>
   <v>       0.14372552       0.28645370       0.50000000 </v>
   <v>       0.28540977       0.28469374       0.50000000 </v>
   <v>       0.42724431       0.28306005       0.50000000 </v>
   <v>       0.57071254       0.28469374       0.50000000 </v>
   <v>       0.71415674       0.28645370       0.50000000 </v>
   <v>       0.85760392       0.28713011       0.50000000 </v>
   <v>       0.00054479       0.42966101       0.50000000 </v>
   <v>       0.14422690       0.42957551       0.50000000 </v>
   <v>       0.28730213       0.42918005       0.50000000 </v>
   <v>       0.42797654       0.42569726       0.50000000 </v>
   <v>       0.56914930       0.42569726       0.50000000 </v>
   <v>       0.71330650       0.42918005       0.50000000 </v>
   <v>       0.85677719       0.42957551       0.50000000 </v>
   <v>       0.99928255       0.57181462       0.50000000 </v>
   <v>       0.14396064       0.57181462       0.50000000 </v>
   <v>       0.28862787       0.57181625       0.50000000 </v>
   <v>       0.43313209       0.57215564       0.50000000 </v>
   <v>       0.71045212       0.57215564       0.50000000 </v>
   <v>       0.85461695       0.57181625       0.50000000 </v>
   <v>       0.99707234       0.71370518       0.50000000 </v>
   <v>       0.14255519       0.71368182       0.50000000 </v>
   <v>       0.28806142       0.71370518       0.50000000 </v>
   <v>       0.43464191       0.71382540       0.50000000 </v>
   <v>       0.58510826       0.71626937       0.50000000 </v>
   <v>       0.70258968       0.71626937       0.50000000 </v>
   <v>       0.85061206       0.71382540       0.50000000 </v>
   <v>       0.99777175       0.85613493       0.50000000 </v>
   <v>       0.14160898       0.85534468       0.50000000 </v>
   <v>       0.28573247       0.85591288       0.50000000 </v>
   <v>       0.42979175       0.85613493       0.50000000 </v>
   <v>       0.57342541       0.85758690       0.50000000 </v>
   <v>       0.71640633       0.86138410       0.50000000 </v>
   <v>       0.85559006       0.85758690       0.50000000 </v>
   <v>       0.04754270       0.09547788       0.50000000 </v>
   <v>       0.18957833       0.09405657       0.50000000 </v>
   <v>       0.33254182       0.09365506       0.50000000 </v>
   <v>       0.47590681       0.09405657       0.50000000 </v>
   <v>       0.61936376       0.09547788       0.50000000 </v>
   <v>       0.76280004       0.09719274       0.50000000 </v>
   <v>       0.90582126       0.09719274       0.50000000 </v>
   <v>       0.04854983       0.23934281       0.50000000 </v>
   <v>       0.19048138       0.23782962       0.50000000 </v>
   <v>       0.33234878       0.23634667       0.50000000 </v>
   <v>       0.47542646       0.23634667       0.50000000 </v>
   <v>       0.61877681       0.23782962       0.50000000 </v>
   <v>       0.76222155       0.23934281       0.50000000 </v>
   <v>       0.90562797       0.23982737       0.50000000 </v>
   <v>       0.04871288       0.38232824       0.50000000 </v>
   <v>       0.19188940       0.38184213       0.50000000 </v>
   <v>       0.33352206       0.38013969       0.50000000 </v>
   <v>       0.47472270       0.37801683       0.50000000 </v>
   <v>       0.61804620       0.38013969       0.50000000 </v>
   <v>       0.76138130       0.38184213       0.50000000 </v>
   <v>       0.90504393       0.38232824       0.50000000 </v>
   <v>       0.04810654       0.52478452       0.50000000 </v>
   <v>       0.19263929       0.52476864       0.50000000 </v>
   <v>       0.33696521       0.52455433       0.50000000 </v>
   <v>       0.47833704       0.52146721       0.50000000 </v>
   <v>       0.61455874       0.52146721       0.50000000 </v>
   <v>       0.75901769       0.52455433       0.50000000 </v>
   <v>       0.90355792       0.52476864       0.50000000 </v>
   <v>       0.04642473       0.66685228       0.50000000 </v>
   <v>       0.19185612       0.66685228       0.50000000 </v>
   <v>       0.33777931       0.66688794       0.50000000 </v>
   <v>       0.48615700       0.66710760       0.50000000 </v>
   <v>       0.75237918       0.66710760       0.50000000 </v>
   <v>       0.90053720       0.66688794       0.50000000 </v>
   <v>       0.04582562       0.80879365       0.50000000 </v>
   <v>       0.19009580       0.80876303       0.50000000 </v>
   <v>       0.33439660       0.80879365       0.50000000 </v>
   <v>       0.47844872       0.80897069       0.50000000 </v>
   <v>       0.62209487       0.81129474       0.50000000 </v>
   <v>       0.76062845       0.81129474       0.50000000 </v>
   <v>       0.90195054       0.80897069       0.50000000 </v>
   <v>       0.04629157       0.95154386       0.50000000 </v>
   <v>       0.18948291       0.95113037       0.50000000 </v>
   <v>       0.33307603       0.95113037       0.50000000 </v>
   <v>       0.47668087       0.95154386       0.50000000 </v>
   <v>       0.62015751       0.95313740       0.50000000 </v>
   <v>       0.76355772       0.95568687       0.50000000 </v>
   <v>       0.90440847       0.95313740       0.50000000 </v>
   <v>       0.56830873       0.56518888       0.50000000 </v>
  </varray>
 </structure>
 <calculation>
  <scstep>
   <time name="dav">    2.36    2.39</time>
   <time name="total">    2.75    2.82</time>
   <energy>
    <i name="alphaZ">    156.50993408 </i>
    <i name="ewald">  58206.75524842 </i>
    <i name="hartreedc"> -70374.18514804 </i>
    <i name="XCdc">   1302.10854866 </i>
    <i name="pawpsdc">  12033.28670802 </i>
    <i name="pawaedc"> -12049.96799276 </i>
    <i name="eentropy">     -0.00000000 </i>
    <i name="bandstr">   -904.53086356 </i>
    <i name="atom">  16260.93880140 </i>
    <i name="e_fr_energy">   4630.91523622 </i>
    <i name="e_wo_entrp">   4630.91523622 </i>
    <i name="e_0_energy">   4630.91523622 </i>
   </energy>
  </scstep>
  <scstep>
   <time name="dav">    2.99    3.03</time>
   <time name="total">    2.99    3.03</time>
   <energy>
    <i name="e_fr_energy">    216.80693073 </i>
    <i name="e_wo_entrp">    216.80693073 </i>
    <i name="e_0_energy">    216.80693073 </i>
   </energy>
  </scstep>
  <scstep>
   <time name="dav">    2.48    2.51</time>
   <time name="total">    2.48    2.51</time>
   <energy>
    <i name="e_fr_energy">   -867.42802799 </i>
    <i name="e_wo_entrp">   -867.42802799 </i>
    <i name="e_0_energy">   -867.42802799 </i>
   </energy>
  </scstep>
  <scstep>
   <time name="dav">    2.45    2.48</time>
   <time name="total">    2.45    2.48</time>
   <energy>
    <i name="e_fr_energy">   -934.17136235 </i>
    <i name="e_wo_entrp">   -934.17136235 </i>
    <i name="e_0_energy">   -934.17136235 </i>
   </energy>
  </scstep>
  <scstep>
   <time name="dav">    2.50    2.54</time>
   <time name="total">    2.94    2.99</time>
   <energy>
    <i name="e_fr_energy">   -935.77376660 </i>
    <i name="e_wo_entrp">   -935.77376660 </i>
    <i name="e_0_energy">   -935.77376660 </i>
   </energy>
  </scstep>
  <scstep>
   <time name="dav">    2.33    2.35</time>
   <time name="total">    3.13    3.16</time>
   <energy>
    <i name="e_fr_energy">   -858.72959694 </i>
    <i name="e_wo_entrp">   -858.72959694 </i>
    <i name="e_0_energy">   -858.72959694 </i>
   </energy>
  </scstep>
  <scstep>
   <time name="dav">    2.33    2.35</time>
   <time name="total">    3.13    3.16</time>
   <energy>
    <i name="e_fr_energy">   -850.18674428 </i>
    <i name="e_wo_entrp">   -850.18674428 </i>
    <i name="e_0_energy">   -850.18674428 </i>
   </energy>
  </scstep>
  <scstep>
   <time name="dav">    2.28    2.31</time>
   <time name="total">    3.08    3.12</time>
   <energy>
    <i name="e_fr_energy">   -845.92429036 </i>
    <i name="e_wo_entrp">   -845.92428941 </i>
    <i name="e_0_energy">   -845.92428988 </i>
   </energy>
  </scstep>
  <scstep>
   <time name="dav">    2.33    2.35</time>
   <time name="total">    3.13    3.16</time>
   <energy>
    <i name="e_fr_energy">   -845.80080068 </i>
    <i name="e_wo_entrp">   -845.80080068 </i>
    <i name="e_0_energy">   -845.80080068 </i>
   </energy>
  </scstep>
  <scstep>
   <time name="dav">    2.38    2.40</time>
   <time name="total">    3.19    3.22</time>
   <energy>
    <i name="e_fr_energy">   -845.63942211 </i>
    <i name="e_wo_entrp">   -845.63942211 </i>
    <i name="e_0_energy">   -845.63942211 </i>
   </energy>
  </scstep>
  <scstep>
   <time name="dav">    2.22    2.26</time>
   <time name="total">    3.03    3.08</time>
   <energy>
    <i name="e_fr_energy">   -845.58614452 </i>
    <i name="e_wo_entrp">   -845.58614452 </i>
    <i name="e_0_energy">   -845.58614452 </i>
   </energy>
  </scstep>
  <scstep>
   <time name="dav">    2.25    2.27</time>
   <time name="total">    3.06    3.09</time>
   <energy>
    <i name="e_fr_energy">   -845.57395745 </i>
    <i name="e_wo_entrp">   -845.57395745 </i>
    <i name="e_0_energy">   -845.57395745 </i>
   </energy>
  </scstep>
  <scstep>
   <time name="dav">    2.23    2.25</time>
   <time name="total">    3.04    3.07</time>
   <energy>
    <i name="e_fr_energy">   -845.58387008 </i>
    <i name="e_wo_entrp">   -845.58387008 </i>
    <i name="e_0_energy">   -845.58387008 </i>
   </energy>
  </scstep>
  <scstep>
   <time name="dav">    2.24    2.26</time>
   <time name="total">    3.04    3.08</time>
   <energy>
    <i name="e_fr_energy">   -845.59443210 </i>
    <i name="e_wo_entrp">   -845.59443210 </i>
    <i name="e_0_energy">   -845.59443210 </i>
   </energy>
  </scstep>
  <scstep>
   <time name="dav">    2.18    2.20</time>
   <time name="total">    2.99    3.02</time>
   <energy>
    <i name="e_fr_energy">   -845.62560940 </i>
    <i name="e_wo_entrp">   -845.62560940 </i>
    <i name="e_0_energy">   -845.62560940 </i>
   </energy>
  </scstep>
  <scstep>
   <time name="dav">    2.20    2.22</time>
   <time name="total">    3.01    3.04</time>
   <energy>
    <i name="e_fr_energy">   -845.64182266 </i>
    <i name="e_wo_entrp">   -845.64182266 </i>
    <i name="e_0_energy">   -845.64182266 </i>
   </energy>
  </scstep>
  <scstep>
   <time name="dav">    2.28    2.30</time>
   <time name="total">    3.08    3.12</time>
   <energy>
    <i name="e_fr_energy">   -845.64801997 </i>
    <i name="e_wo_entrp">   -845.64801997 </i>
    <i name="e_0_energy">   -845.64801997 </i>
   </energy>
  </scstep>
  <scstep>
   <time name="dav">    2.20    2.23</time>
   <time name="total">    3.02    3.05</time>
   <energy>
    <i name="e_fr_energy">   -845.65116695 </i>
    <i name="e_wo_entrp">   -845.65116695 </i>
    <i name="e_0_energy">   -845.65116695 </i>
   </energy>
  </scstep>
  <scstep>
   <time name="dav">    2.30    2.32</time>
   <time name="total">    3.11    3.15</time>
   <energy>
    <i name="e_fr_energy">   -845.65224361 </i>
    <i name="e_wo_entrp">   -845.65224361 </i>
    <i name="e_0_energy">   -845.65224361 </i>
   </energy>
  </scstep>
  <scstep>
   <time name="dav">    2.23    2.25</time>
   <time name="total">    3.04    3.07</time>
   <energy>
    <i name="e_fr_energy">   -845.65266399 </i>
    <i name="e_wo_entrp">   -845.65266399 </i>
    <i name="e_0_energy">   -845.65266399 </i>
   </energy>
  </scstep>
  <scstep>
   <time name="dav">    2.24    2.27</time>
   <time name="total">    3.05    3.09</time>
   <energy>
    <i name="e_fr_energy">   -845.65286393 </i>
    <i name="e_wo_entrp">   -845.65286393 </i>
    <i name="e_0_energy">   -845.65286393 </i>
   </energy>
  </scstep>
  <scstep>
   <time name="dav">    2.21    2.22</time>
   <time name="total">    3.01    3.05</time>
   <energy>
    <i name="e_fr_energy">   -845.65296734 </i>
    <i name="e_wo_entrp">   -845.65296734 </i>
    <i name="e_0_energy">   -845.65296734 </i>
   </energy>
  </scstep>
  <scstep>
   <time name="dav">    2.23    2.25</time>
   <time name="total">    3.05    3.08</time>
   <energy>
    <i name="e_fr_energy">   -845.65305043 </i>
    <i name="e_wo_entrp">   -845.65305043 </i>
    <i name="e_0_energy">   -845.65305043 </i>
   </energy>
  </scstep>
  <scstep>
   <time name="dav">    2.27    2.30</time>
   <time name="total">    3.08    3.14</time>
   <energy>
    <i name="e_fr_energy">   -845.65308886 </i>
    <i name="e_wo_entrp">   -845.65308886 </i>
    <i name="e_0_energy">   -845.65308886 </i>
   </energy>
  </scstep>
  <scstep>
   <time name="dav">    2.25    2.27</time>
   <time name="total">    3.06    3.10</time>
   <energy>
    <i name="e_fr_energy">   -845.65310798 </i>
    <i name="e_wo_entrp">   -845.65310798 </i>
    <i name="e_0_energy">   -845.65310798 </i>
   </energy>
  </scstep>
  <scstep>
   <time name="dav">    2.23    2.25</time>
   <time name="total">    3.05    3.09</time>
   <energy>
    <i name="e_fr_energy">   -845.65312465 </i>
    <i name="e_wo_entrp">   -845.65312465 </i>
    <i name="e_0_energy">   -845.65312465 </i>
   </energy>
  </scstep>
  <scstep>
   <time name="dav">    2.14    2.16</time>
   <time name="total">    2.96    2.99</time>
   <energy>
    <i name="e_fr_energy">   -845.65312780 </i>
    <i name="e_wo_entrp">   -845.65312780 </i>
    <i name="e_0_energy">   -845.65312780 </i>
   </energy>
  </scstep>
  <scstep>
   <time name="dav">    1.96    1.98</time>
   <time name="total">    2.78    2.81</time>
   <energy>
    <i name="e_fr_energy">   -845.65312907 </i>
    <i name="e_wo_entrp">   -845.65312907 </i>
    <i name="e_0_energy">   -845.65312907 </i>
   </energy>
  </scstep>
  <scstep>
   <time name="dav">    1.77    1.79</time>
   <time name="total">    2.58    2.62</time>
   <energy>
    <i name="e_fr_energy">   -845.65312936 </i>
    <i name="e_wo_entrp">   -845.65312936 </i>
    <i name="e_0_energy">   -845.65312936 </i>
   </energy>
  </scstep>
  <scstep>
   <time name="dav">    1.67    1.69</time>
   <time name="total">    2.48    2.52</time>
   <energy>
    <i name="e_fr_energy">   -845.65312948 </i>
    <i name="e_wo_entrp">   -845.65312948 </i>
    <i name="e_0_energy">   -845.65312948 </i>
   </energy>
  </scstep>
  <scstep>
   <time name="dav">    1.71    1.73</time>
   <time name="total">    2.53    2.57</time>
   <energy>
    <i name="e_fr_energy">   -845.65312953 </i>
    <i name="e_wo_entrp">   -845.65312953 </i>
    <i name="e_0_energy">   -845.65312953 </i>
   </energy>
  </scstep>
  <scstep>
   <time name="dav">    1.69    1.71</time>
   <time name="total">    2.51    2.54</time>
   <energy>
    <i name="e_fr_energy">   -845.65312956 </i>
    <i name="e_wo_entrp">   -845.65312956 </i>
    <i name="e_0_energy">   -845.65312956 </i>
   </energy>
  </scstep>
  <scstep>
   <time name="dav">    1.80    1.81</time>
   <time name="total">    2.17    2.21</time>
   <energy>
    <i name="alphaZ">    156.50993408 </i>
    <i name="ewald">  58206.75524842 </i>
    <i name="hartreedc"> -72314.26543106 </i>
    <i name="XCdc">   1369.72352226 </i>
    <i name="pawpsdc">  44018.60244931 </i>
    <i name="pawaedc"> -44053.94424292 </i>
    <i name="eentropy">     -0.00000000 </i>
    <i name="bandstr">  -4489.97341105 </i>
    <i name="atom">  16260.93880140 </i>
    <i name="e_fr_energy">   -845.65312957 </i>
    <i name="e_wo_entrp">   -845.65312957 </i>
    <i name="e_0_energy">   -845.65312957 </i>
   </energy>
  </scstep>
  <structure>
   <crystal>
    <varray name="basis" >
     <v>      17.59966831       0.00000000       0.00000000 </v>
     <v>      -8.79983416      15.24175986       0.00000000 </v>
     <v>       0.00000000       0.00000000      19.92151445 </v>
    </varray>
    <i name="volume">   5343.94461817 </i>
    <varray name="rec_basis" >
     <v>       0.05681925       0.03280461       0.00000000 </v>
     <v>       0.00000000       0.06560922       0.00000000 </v>
     <v>       0.00000000       0.00000000       0.05019699 </v>
    </varray>
   </crystal>
   <varray name="positions" >
    <v>       0.99943010       0.00005992       0.50000000 </v>
    <v>       0.14164706       0.99871895       0.50000000 </v>
    <v>       0.28492260       0.99841663       0.50000000 </v>
    <v>       0.42850047       0.99871895       0.50000000 </v>
    <v>       0.57205839       0.00005992       0.50000000 </v>
    <v>       0.71530655       0.00214292       0.50000000 </v>
    <v>       0.85826494       0.00214292       0.50000000 </v>
    <v>       0.00080792       0.14408264       0.50000000 </v>
    <v>       0.14259355       0.14244783       0.50000000 </v>
    <v>       0.28470221       0.14112972       0.50000000 </v>
    <v>       0.42785608       0.14112972       0.50000000 </v>
    <v>       0.57128286       0.14244783       0.50000000 </v>
    <v>       0.71470329       0.14408264       0.50000000 </v>
    <v>       0.85805263       0.14467669       0.50000000 </v>
    <v>       0.00095476       0.28713011       0.50000000 </v>
    <v>       0.14372552       0.28645370       0.50000000 </v>
    <v>       0.28540977       0.28469374       0.50000000 </v>
    <v>       0.42724431       0.28306005       0.50000000 </v>
    <v>       0.57071254       0.28469374       0.50000000 </v>
    <v>       0.71415674       0.28645370       0.50000000 </v>
    <v>       0.85760392       0.28713011       0.50000000 </v>
    <v>       0.00054479       0.42966101       0.50000000 </v>
    <v>       0.14422690       0.42957551       0.50000000 </v>
    <v>       0.28730213       0.42918005       0.50000000 </v>
    <v>       0.42797654       0.42569726       0.50000000 </v>
    <v>       0.56914930       0.42569726       0.50000000 </v>
    <v>       0.71330650       0.42918005       0.50000000 </v>
    <v>       0.85677719       0.42957551       0.50000000 </v>
    <v>       0.99928255       0.57181462       0.50000000 </v>
    <v>       0.14396064       0.57181462       0.50000000 </v>
    <v>       0.28862787       0.57181625       0.50000000 </v>
    <v>       0.43313209       0.57215564       0.50000000 </v>
    <v>       0.71045212       0.57215564       0.50000000 </v>
    <v>       0.85461695       0.57181625       0.50000000 </v>
    <v>       0.99707234       0.71370518       0.50000000 </v>
    <v>       0.14255519       0.71368182       0.50000000 </v>
    <v>       0.28806142       0.71370518       0.50000000 </v>
    <v>       0.43464191       0.71382540       0.50000000 </v>
    <v>       0.58510826       0.71626937       0.50000000 </v>
    <v>       0.70258968       0.71626937       0.50000000 </v>
    <v>       0.85061206       0.71382540       0.50000000 </v>
    <v>       0.99777175       0.85613493       0.50000000 </v>
    <v>       0.14160898       0.85534468       0.50000000 </v>
    <v>       0.28573247       0.85591288       0.50000000 </v>
    <v>       0.42979175       0.85613493       0.50000000 </v>
    <v>       0.57342541       0.85758690       0.50000000 </v>
    <v>       0.71640633       0.86138410       0.50000000 </v>
    <v>       0.85559006       0.85758690       0.50000000 </v>
    <v>       0.04754270       0.09547788       0.50000000 </v>
    <v>       0.18957833       0.09405657       0.50000000 </v>
    <v>       0.33254182       0.09365506       0.50000000 </v>
    <v>       0.47590681       0.09405657       0.50000000 </v>
    <v>       0.61936376       0.09547788       0.50000000 </v>
    <v>       0.76280004       0.09719274       0.50000000 </v>
    <v>       0.90582126       0.09719274       0.50000000 </v>
    <v>       0.04854983       0.23934281       0.50000000 </v>
    <v>       0.19048138       0.23782962       0.50000000 </v>
    <v>       0.33234878       0.23634667       0.50000000 </v>
    <v>       0.47542646       0.23634667       0.50000000 </v>
    <v>       0.61877681       0.23782962       0.50000000 </v>
    <v>       0.76222155       0.23934281       0.50000000 </v>
    <v>       0.90562797       0.23982737       0.50000000 </v>
    <v>       0.04871288       0.38232824       0.50000000 </v>
    <v>       0.19188940       0.38184213       0.50000000 </v>
    <v>       0.33352206       0.38013969       0.50000000 </v>
    <v>       0.47472270       0.37801683       0.50000000 </v>
    <v>       0.61804620       0.38013969       0.50000000 </v>
    <v>       0.76138130       0.38184213       0.50000000 </v>
    <v>       0.90504393       0.38232824       0.50000000 </v>
    <v>       0.04810654       0.52478452       0.50000000 </v>
    <v>       0.19263929       0.52476864       0.50000000 </v>
    <v>       0.33696521       0.52455433       0.50000000 </v>
    <v>       0.47833704       0.52146721       0.50000000 </v>
    <v>       0.61455874       0.52146721       0.50000000 </v>
    <v>       0.75901769       0.52455433       0.50000000 </v>
    <v>       0.90355792       0.52476864       0.50000000 </v>
    <v>       0.04642473       0.66685228       0.50000000 </v>
    <v>       0.19185612       0.66685228       0.50000000 </v>
    <v>       0.33777931       0.66688794       0.50000000 </v>
    <v>       0.48615700       0.66710760       0.50000000 </v>
    <v>       0.75237918       0.66710760       0.50000000 </v>
    <v>       0.90053720       0.66688794       0.50000000 </v>
    <v>       0.04582562       0.80879365       0.50000000 </v>
    <v>       0.19009580       0.80876303       0.50000000 </v>
    <v>       0.33439660       0.80879365       0.50000000 </v>
    <v>       0.47844872       0.80897069       0.50000000 </v>
    <v>       0.62209487       0.81129474       0.50000000 </v>
    <v>       0.76062845       0.81129474       0.50000000 </v>
    <v>       0.90195054       0.80897069       0.50000000 </v>
    <v>       0.04629157       0.95154386       0.50000000 </v>
    <v>       0.18948291       0.95113037       0.50000000 </v>
    <v>       0.33307603       0.95113037       0.50000000 </v>
    <v>       0.47668087       0.95154386       0.50000000 </v>
    <v>       0.62015751       0.95313740       0.50000000 </v>
    <v>       0.76355772       0.95568687       0.50000000 </v>
    <v>       0.90440847       0.95313740       0.50000000 </v>
    <v>       0.56830873       0.56518888       0.50000000 </v>
   </varray>
  </structure>
  <varray name="forces" >
   <v>      -0.03378694      -0.02918572      -0.00000000 </v>
   <v>       0.00793734      -0.04254747      -0.00000000 </v>
   <v>      -0.04197817      -0.02308184      -0.00000000 </v>
   <v>       0.02133887      -0.00854333      -0.00000000 </v>
   <v>       0.04090298      -0.02516143       0.00000000 </v>
   <v>      -0.03245019      -0.04942581      -0.00000000 </v>
   <v>       0.03560685      -0.05008338       0.00000000 </v>
   <v>      -0.00299261      -0.02889824      -0.00000000 </v>
   <v>      -0.02189046      -0.02919714      -0.00000000 </v>
   <v>      -0.00828449      -0.03992810      -0.00000000 </v>
   <v>       0.00010068      -0.03520481       0.00000000 </v>
   <v>       0.02531130      -0.02599221      -0.00000000 </v>
   <v>       0.00617101      -0.02734939      -0.00000000 </v>
   <v>       0.00129542      -0.04255437      -0.00000000 </v>
   <v>      -0.00731418      -0.03154282       0.00000000 </v>
   <v>       0.00724165      -0.04684776      -0.00000000 </v>
   <v>      -0.02930417      -0.00557129      -0.00000000 </v>
   <v>      -0.00178162      -0.09624242      -0.00000000 </v>
   <v>       0.02845485      -0.00377023       0.00000000 </v>
   <v>      -0.00616841      -0.04534634      -0.00000000 </v>
   <v>       0.00876312      -0.03097960      -0.00000000 </v>
   <v>       0.00015073       0.00367349      -0.00000000 </v>
   <v>      -0.02428569      -0.00397158      -0.00000000 </v>
   <v>       0.05861080      -0.14063219      -0.00000000 </v>
   <v>      -0.11175989      -0.20148844      -0.00000000 </v>
   <v>       0.11105432      -0.20096759      -0.00000000 </v>
   <v>      -0.05865477      -0.13902320      -0.00000000 </v>
   <v>       0.02475915      -0.00282560      -0.00000000 </v>
   <v>       0.01641078       0.02249164      -0.00000000 </v>
   <v>      -0.01638594       0.02251738      -0.00000000 </v>
   <v>      -0.08378161       0.12563453      -0.00000000 </v>
   <v>       0.05172540       0.39571171       0.00000000 </v>
   <v>      -0.05111887       0.39685098       0.00000000 </v>
   <v>       0.08266994       0.12923349      -0.00000000 </v>
   <v>      -0.03375422       0.02195740      -0.00000000 </v>
   <v>       0.01388522      -0.01508760      -0.00000000 </v>
   <v>       0.01432239       0.01988367       0.00000000 </v>
   <v>       0.08945210       0.04336625      -0.00000000 </v>
   <v>       1.36514606       1.25108871       0.00000000 </v>
   <v>      -1.36424984       1.25119146       0.00000000 </v>
   <v>      -0.08707990       0.04413491      -0.00000000 </v>
   <v>      -0.03321828       0.01344180       0.00000000 </v>
   <v>      -0.26043391       0.41850860      -0.00000000 </v>
   <v>       0.04228869       0.02646223       0.00000000 </v>
   <v>       0.05174711      -0.00214721      -0.00000000 </v>
   <v>       0.15283471       0.03754298      -0.00000000 </v>
   <v>       0.00108963      -0.25166254      -0.00000000 </v>
   <v>      -0.15021060       0.03922161       0.00000000 </v>
   <v>       0.02260509       0.03416938      -0.00000000 </v>
   <v>       0.00824612       0.03293002      -0.00000000 </v>
   <v>       0.00822324       0.03810103      -0.00000000 </v>
   <v>      -0.00714064       0.02159809      -0.00000000 </v>
   <v>      -0.02595068       0.03120054      -0.00000000 </v>
   <v>      -0.01326262       0.02706036       0.00000000 </v>
   <v>       0.01060117       0.02760232       0.00000000 </v>
   <v>       0.01459955       0.03750673       0.00000000 </v>
   <v>      -0.01049547       0.00683449      -0.00000000 </v>
   <v>       0.01598615       0.04062924      -0.00000000 </v>
   <v>      -0.01322065       0.03812029       0.00000000 </v>
   <v>       0.01002804       0.00390177       0.00000000 </v>
   <v>      -0.01589300       0.03613518       0.00000000 </v>
   <v>      -0.00070610       0.03244966       0.00000000 </v>
   <v>       0.01029596       0.02880164      -0.00000000 </v>
   <v>       0.04652979       0.06213593      -0.00000000 </v>
   <v>      -0.02267247      -0.19724417       0.00000000 </v>
   <v>       0.00041094       0.11240673      -0.00000000 </v>
   <v>       0.02288300      -0.19878809      -0.00000000 </v>
   <v>      -0.04677529       0.06060148      -0.00000000 </v>
   <v>      -0.01056178       0.02821852      -0.00000000 </v>
   <v>       0.00022047       0.01344187       0.00000000 </v>
   <v>       0.02374800      -0.00374471      -0.00000000 </v>
   <v>       0.18844545       0.11466326       0.00000000 </v>
   <v>       1.02229349      -1.56259741       0.00000000 </v>
   <v>      -1.02288746      -1.56301301      -0.00000000 </v>
   <v>      -0.18908841       0.11258009       0.00000000 </v>
   <v>      -0.02279035      -0.00476547       0.00000000 </v>
   <v>       0.02084254      -0.02470838       0.00000000 </v>
   <v>      -0.01715772      -0.02631874       0.00000000 </v>
   <v>      -0.06314330      -0.06432208      -0.00000000 </v>
   <v>      -0.27233427       0.00988024      -0.00000000 </v>
   <v>       0.27057049       0.00878845      -0.00000000 </v>
   <v>       0.06075181      -0.07190123      -0.00000000 </v>
   <v>       0.07812588      -0.08286103       0.00000000 </v>
   <v>       0.13979852      -0.13626583       0.00000000 </v>
   <v>      -0.04924132      -0.01476879      -0.00000000 </v>
   <v>      -0.08838253      -0.01444540       0.00000000 </v>
   <v>      -0.88770230       0.24337278      -0.00000000 </v>
   <v>       0.88542622       0.24268786      -0.00000000 </v>
   <v>       0.08853683      -0.01790631       0.00000000 </v>
   <v>       0.01858132       0.01225980       0.00000000 </v>
   <v>       0.05040168      -0.18518551       0.00000000 </v>
   <v>       0.00082049      -0.02267550      -0.00000000 </v>
   <v>      -0.03204897       0.01328169      -0.00000000 </v>
   <v>      -0.11172255       0.11808575       0.00000000 </v>
   <v>      -0.00153133       0.01569503       0.00000000 </v>
   <v>       0.10707914       0.11772935      -0.00000000 </v>
   <v>       0.00027152      -0.11901109       0.00000000 </v>
  </varray>
  <varray name="stress" >
   <v>     -10.57411626      -0.01717797       0.00000000 </v>
   <v>      -0.01717797       3.00391587       0.00000000 </v>
   <v>       0.00000000       0.00000000      -0.42556336 </v>
  </varray>
  <energy>
   <i name="e_fr_energy">   -845.65312957 </i>
   <i name="e_wo_entrp">   -845.65312957 </i>
   <i name="e_0_energy">     -0.00000000 </i>
  </energy>
  <time name="totalsc">  103.56  104.89</time>
  <eigenvalues>
   <array>
    <dimension dim="1">band</dimension>
    <dimension dim="2">kpoint</dimension>
    <dimension dim="3">spin</dimension>
    <field>eigene</field>
    <field>occ</field>
    <set>
     <set comment="spin 1">
      <set comment="kpoint 1">
       <r>  -22.5406    1.0000 </r>
       <r>  -22.0195    1.0000 </r>
       <r>  -21.7727    1.0000 </r>
       <r>  -21.7412    1.0000 </r>
       <r>  -21.7017    1.0000 </r>
       <r>  -21.6533    1.0000 </r>
       <r>  -21.6171    1.0000 </r>
       <r>  -21.2359    1.0000 </r>
       <r>  -21.0698    1.0000 </r>
       <r>  -21.0051    1.0000 </r>
       <r>  -20.9687    1.0000 </r>
       <r>  -20.9256    1.0000 </r>
       <r>  -20.8808    1.0000 </r>
       <r>  -20.7440    1.0000 </r>
       <r>  -20.6996    1.0000 </r>
       <r>  -20.6633    1.0000 </r>
       <r>  -20.5946    1.0000 </r>
       <r>  -20.5678    1.0000 </r>
       <r>  -20.4290    1.0000 </r>
       <r>  -19.9820    1.0000 </r>
       <r>  -19.9246    1.0000 </r>
       <r>  -19.8028    1.0000 </r>
       <r>  -19.7606    1.0000 </r>
       <r>  -19.7435    1.0000 </r>
       <r>  -19.7355    1.0000 </r>
       <r>  -19.7058    1.0000 </r>
       <r>  -19.6988    1.0000 </r>
       <r>  -19.6452    1.0000 </r>
       <r>  -19.6370    1.0000 </r>
       <r>  -19.6278    1.0000 </r>
       <r>  -19.4919    1.0000 </r>
       <r>  -19.4033    1.0000 </r>
       <r>  -19.3653    1.0000 </r>
       <r>  -19.3581    1.0000 </r>
       <r>  -19.2914    1.0000 </r>
       <r>  -19.2387    1.0000 </r>
       <r>  -19.1096    1.0000 </r>
       <r>  -18.9976    1.0000 </r>
       <r>  -18.9341    1.0000 </r>
       <r>  -18.8732    1.0000 </r>
       <r>  -18.8518    1.0000 </r>
       <r>  -18.8369    1.0000 </r>
       <r>  -18.7682    1.0000 </r>
       <r>  -18.7479    1.0000 </r>
       <r>  -18.7296    1.0000 </r>
       <r>  -18.7126    1.0000 </r>
       <r>  -18.6957    1.0000 </r>
       <r>  -18.4448    1.0000 </r>
       <r>  -14.1405    1.0000 </r>
       <r>  -13.1792    1.0000 </r>
       <r>  -13.1575    1.0000 </r>
       <r>  -13.1092    1.0000 </r>
       <r>  -13.1017    1.0000 </r>
       <r>  -13.0782    1.0000 </r>
       <r>  -13.0181    1.0000 </r>
       <r>  -12.9644    1.0000 </r>
       <r>  -12.9509    1.0000 </r>
       <r>  -12.9347    1.0000 </r>
       <r>  -12.8044    1.0000 </r>
       <r>  -12.7667    1.0000 </r>
       <r>  -12.6025    1.0000 </r>
       <r>  -12.5040    1.0000 </r>
       <r>  -12.4849    1.0000 </r>
       <r>  -12.3776    1.0000 </r>
       <r>  -12.3127    1.0000 </r>
       <r>  -12.2974    1.0000 </r>
       <r>  -12.1735    1.0000 </r>
       <r>  -11.9009    1.0000 </r>
       <r>  -11.8827    1.0000 </r>
       <r>  -11.7686    1.0000 </r>
       <r>  -11.7641    1.0000 </r>
       <r>  -11.7512    1.0000 </r>
       <r>  -11.7421    1.0000 </r>
       <r>  -11.6940    1.0000 </r>
       <r>  -11.6562    1.0000 </r>
       <r>  -11.6312    1.0000 </r>
       <r>  -11.5417    1.0000 </r>
       <r>  -11.4211    1.0000 </r>
       <r>  -11.2004    1.0000 </r>
       <r>  -11.1236    1.0000 </r>
       <r>  -11.0832    1.0000 </r>
       <r>  -11.0586    1.0000 </r>
       <r>  -10.9658    1.0000 </r>
       <r>  -10.9166    1.0000 </r>
       <r>  -10.6857    1.0000 </r>
       <r>  -10.4641    1.0000 </r>
       <r>  -10.4295    1.0000 </r>
       <r>  -10.3495    1.0000 </r>
       <r>  -10.2540    1.0000 </r>
       <r>  -10.2053    1.0000 </r>
       <r>   -9.8897    1.0000 </r>
       <r>   -9.7695    1.0000 </r>
       <r>   -9.7657    1.0000 </r>
       <r>   -9.7239    1.0000 </r>
       <r>   -9.6763    1.0000 </r>
       <r>   -9.5830    1.0000 </r>
       <r>   -9.5385    1.0000 </r>
       <r>   -9.4996    1.0000 </r>
       <r>   -9.4625    1.0000 </r>
       <r>   -9.3524    1.0000 </r>
       <r>   -9.3454    1.0000 </r>
       <r>   -9.2891    1.0000 </r>
       <r>   -9.2628    1.0000 </r>
       <r>   -9.2563    1.0000 </r>
       <r>   -9.2500    1.0000 </r>
       <r>   -9.2397    1.0000 </r>
       <r>   -9.2235    1.0000 </r>
       <r>   -9.2227    1.0000 </r>
       <r>   -9.2093    1.0000 </r>
       <r>   -9.2029    1.0000 </r>
       <r>   -9.1991    1.0000 </r>
       <r>   -9.1963    1.0000 </r>
       <r>   -9.1598    1.0000 </r>
       <r>   -9.1331    1.0000 </r>
       <r>   -9.1128    1.0000 </r>
       <r>   -9.1105    1.0000 </r>
       <r>   -9.0997    1.0000 </r>
       <r>   -9.0410    1.0000 </r>
       <r>   -8.9926    1.0000 </r>
       <r>   -8.8496    1.0000 </r>
       <r>   -8.7948    1.0000 </r>
       <r>   -8.6531    1.0000 </r>
       <r>   -8.5045    1.0000 </r>
       <r>   -8.4839    1.0000 </r>
       <r>   -8.4427    1.0000 </r>
       <r>   -8.3290    1.0000 </r>
       <r>   -8.2231    1.0000 </r>
       <r>   -8.2007    1.0000 </r>
       <r>   -8.1978    1.0000 </r>
       <r>   -8.1704    1.0000 </r>
       <r>   -8.1500    1.0000 </r>
       <r>   -8.1214    1.0000 </r>
       <r>   -8.0397    1.0000 </r>
       <r>   -7.9709    1.0000 </r>
       <r>   -7.9516    1.0000 </r>
       <r>   -7.8714    1.0000 </r>
       <r>   -7.8522    1.0000 </r>
       <r>   -7.8456    1.0000 </r>
       <r>   -7.8002    1.0000 </r>
       <r>   -7.7992    1.0000 </r>
       <r>   -7.7943    1.0000 </r>
       <r>   -7.7350    1.0000 </r>
       <r>   -7.7334    1.0000 </r>
       <r>   -7.7119    1.0000 </r>
       <r>   -7.6782    1.0000 </r>
       <r>   -7.6760    1.0000 </r>
       <r>   -7.6624    1.0000 </r>
       <r>   -7.6379    1.0000 </r>
       <r>   -7.6311    1.0000 </r>
       <r>   -7.4428    1.0000 </r>
       <r>   -7.4357    1.0000 </r>
       <r>   -7.4272    1.0000 </r>
       <r>   -7.3849    1.0000 </r>
       <r>   -7.3611    1.0000 </r>
       <r>   -7.2730    1.0000 </r>
       <r>   -6.8305    1.0000 </r>
       <r>   -6.7606    1.0000 </r>
       <r>   -6.6263    1.0000 </r>
       <r>   -6.6058    1.0000 </r>
       <r>   -6.5432    1.0000 </r>
       <r>   -6.5385    1.0000 </r>
       <r>   -6.4971    1.0000 </r>
       <r>   -6.4876    1.0000 </r>
       <r>   -6.4559    1.0000 </r>
       <r>   -6.4541    1.0000 </r>
       <r>   -6.4463    1.0000 </r>
       <r>   -6.4398    1.0000 </r>
       <r>   -6.4094    1.0000 </r>
       <r>   -6.4049    1.0000 </r>
       <r>   -6.3607    1.0000 </r>
       <r>   -6.3458    1.0000 </r>
       <r>   -6.3143    1.0000 </r>
       <r>   -6.1098    1.0000 </r>
       <r>   -5.9711    1.0000 </r>
       <r>   -5.9238    1.0000 </r>
       <r>   -5.8853    1.0000 </r>
       <r>   -5.8751    1.0000 </r>
       <r>   -5.8653    1.0000 </r>
       <r>   -5.7820    1.0000 </r>
       <r>   -5.7795    1.0000 </r>
       <r>   -5.5296    1.0000 </r>
       <r>   -5.2190    1.0000 </r>
       <r>   -5.1977    1.0000 </r>
       <r>   -5.1971    1.0000 </r>
       <r>   -5.1410    1.0000 </r>
       <r>   -5.1319    1.0000 </r>
       <r>   -5.1042    1.0000 </r>
       <r>   -5.0022    1.0000 </r>
       <r>   -4.9410    1.0000 </r>
       <r>   -4.9204    1.0000 </r>
       <r>   -4.9058    1.0000 </r>
       <r>   -4.8997    1.0000 </r>
       <r>   -4.7315    1.0000 </r>
       <r>   -1.3157    1.0000 </r>
       <r>   -1.2027    0.0000 </r>
       <r>    0.0595    0.0000 </r>
       <r>    0.2050    0.0000 </r>
       <r>    0.2376    0.0000 </r>
       <r>    0.2579    0.0000 </r>
       <r>    0.2623    0.0000 </r>
       <r>    0.3038    0.0000 </r>
       <r>    0.3091    0.0000 </r>
       <r>    0.3764    0.0000 </r>
       <r>    0.3915    0.0000 </r>
       <r>    0.4345    0.0000 </r>
       <r>    0.4792    0.0000 </r>
       <r>    0.5262    0.0000 </r>
       <r>    0.6096    0.0000 </r>
       <r>    0.7447    0.0000 </r>
       <r>    0.7464    0.0000 </r>
       <r>    0.7792    0.0000 </r>
       <r>    0.8061    0.0000 </r>
       <r>    0.8121    0.0000 </r>
       <r>    0.8292    0.0000 </r>
       <r>    0.8378    0.0000 </r>
       <r>    0.8591    0.0000 </r>
       <r>    0.8710    0.0000 </r>
       <r>    0.9815    0.0000 </r>
       <r>    1.0200    0.0000 </r>
       <r>    1.0620    0.0000 </r>
       <r>    1.1193    0.0000 </r>
       <r>    1.4953    0.0000 </r>
       <r>    1.6730    0.0000 </r>
       <r>    1.6973    0.0000 </r>
       <r>    1.7071    0.0000 </r>
       <r>    1.7233    0.0000 </r>
       <r>    1.7399    0.0000 </r>
       <r>    1.7442    0.0000 </r>
       <r>    1.8048    0.0000 </r>
       <r>    1.8088    0.0000 </r>
       <r>    1.8450    0.0000 </r>
       <r>    1.8459    0.0000 </r>
       <r>    1.8781    0.0000 </r>
       <r>    1.8819    0.0000 </r>
       <r>    1.9061    0.0000 </r>
       <r>    1.9089    0.0000 </r>
       <r>    1.9294    0.0000 </r>
       <r>    1.9838    0.0000 </r>
       <r>    2.0304    0.0000 </r>
       <r>    2.1019    0.0000 </r>
       <r>    2.1090    0.0000 </r>
       <r>    2.1291    0.0000 </r>
       <r>    2.1331    0.0000 </r>
       <r>    2.1404    0.0000 </r>
      </set>
     </set>
    </set>
   </array>
  </eigenvalues>
  <separator name="orbital magnetization" >
   <v name="MAGDIPOLOUT">      0.00000000      0.00000000      0.00000000</v>
  </separator>
  <dos>
   <i name="efermi">     -1.25217309 </i>
   <total>
    <array>
     <dimension dim="1">gridpoints</dimension>
     <dimension dim="2">spin</dimension>
     <field>energy</field>
     <field>total</field>
     <field>integrated</field>
     <set>
      <set comment="spin 1">
       <r>   -23.7746     0.0000     0.0000 </r>
       <r>   -23.6841     0.0000     0.0000 </r>
       <r>   -23.5936     0.0000     0.0000 </r>
       <r>   -23.5031     0.0000     0.0000 </r>
       <r>   -23.4126     0.0000     0.0000 </r>
       <r>   -23.3222     0.0000     0.0000 </r>
       <r>   -23.2317     0.0000     0.0000 </r>
       <r>   -23.1412     0.0000     0.0000 </r>
       <r>   -23.0507     0.0000     0.0000 </r>
       <r>   -22.9602     0.0000     0.0000 </r>
       <r>   -22.8697     0.0000     0.0000 </r>
       <r>   -22.7792     0.0000     0.0000 </r>
       <r>   -22.6887     0.0000     0.0000 </r>
       <r>   -22.5982     0.0000     0.0000 </r>
       <r>   -22.5077    22.1001     2.0000 </r>
       <r>   -22.4172     0.0000     2.0000 </r>
       <r>   -22.3267     0.0000     2.0000 </r>
       <r>   -22.2362     0.0000     2.0000 </r>
       <r>   -22.1457     0.0000     2.0000 </r>
       <r>   -22.0552     0.0000     2.0000 </r>
       <r>   -21.9647    22.1002     4.0000 </r>
       <r>   -21.8742     0.0000     4.0000 </r>
       <r>   -21.7837     1.3367     4.1210 </r>
       <r>   -21.6932    62.4298     9.7707 </r>
       <r>   -21.6027    43.7306    13.9575 </r>
       <r>   -21.5122     0.0000    14.0000 </r>
       <r>   -21.4217     0.0000    14.0000 </r>
       <r>   -21.3312     0.0000    14.0000 </r>
       <r>   -21.2407     5.4927    14.4971 </r>
       <r>   -21.1502     0.0000    16.0000 </r>
       <r>   -21.0597    20.3843    17.8447 </r>
       <r>   -20.9692    32.4606    20.9376 </r>
       <r>   -20.8787    35.6431    25.2256 </r>
       <r>   -20.7882     0.0000    26.0000 </r>
       <r>   -20.6977    35.4371    29.2070 </r>
       <r>   -20.6072    22.9074    32.0731 </r>
       <r>   -20.5167    43.3930    36.0000 </r>
       <r>   -20.4262    14.3603    37.2996 </r>
       <r>   -20.3357     0.0000    38.0000 </r>
       <r>   -20.2453     0.0000    38.0000 </r>
       <r>   -20.1548     0.0000    38.0000 </r>
       <r>   -20.0643     0.0000    38.0000 </r>
       <r>   -19.9738    19.3964    39.7553 </r>
       <r>   -19.8833    22.1002    42.0000 </r>
       <r>   -19.7928    20.3774    43.8441 </r>
       <r>   -19.7023    88.5273    52.0115 </r>
       <r>   -19.6118    66.0338    59.9759 </r>
       <r>   -19.5213     0.0004    60.0000 </r>
       <r>   -19.4308    22.1009    62.0001 </r>
       <r>   -19.3403    66.1669    67.9880 </r>
       <r>   -19.2498    23.3986    70.1175 </r>
       <r>   -19.1593    20.8017    72.0000 </r>
       <r>   -19.0688    22.1002    74.0000 </r>
       <r>   -18.9783    22.0305    75.9937 </r>
       <r>   -18.8878    22.5280    78.0387 </r>
       <r>   -18.7973    65.8730    84.0000 </r>
       <r>   -18.7068    85.1504    91.7059 </r>
       <r>   -18.6163    20.8254    94.0000 </r>
       <r>   -18.5258     0.0000    94.0000 </r>
       <r>   -18.4353    20.0968    95.8187 </r>
       <r>   -18.3448     0.0000    96.0000 </r>
       <r>   -18.2543     0.0000    96.0000 </r>
       <r>   -18.1638     0.0000    96.0000 </r>
       <r>   -18.0733     0.0000    96.0000 </r>
       <r>   -17.9828     0.0000    96.0000 </r>
       <r>   -17.8923     0.0000    96.0000 </r>
       <r>   -17.8018     0.0000    96.0000 </r>
       <r>   -17.7113     0.0000    96.0000 </r>
       <r>   -17.6208     0.0000    96.0000 </r>
       <r>   -17.5303     0.0000    96.0000 </r>
       <r>   -17.4398     0.0000    96.0000 </r>
       <r>   -17.3493     0.0000    96.0000 </r>
       <r>   -17.2588     0.0000    96.0000 </r>
       <r>   -17.1684     0.0000    96.0000 </r>
       <r>   -17.0779     0.0000    96.0000 </r>
       <r>   -16.9874     0.0000    96.0000 </r>
       <r>   -16.8969     0.0000    96.0000 </r>
       <r>   -16.8064     0.0000    96.0000 </r>
       <r>   -16.7159     0.0000    96.0000 </r>
       <r>   -16.6254     0.0000    96.0000 </r>
       <r>   -16.5349     0.0000    96.0000 </r>
       <r>   -16.4444     0.0000    96.0000 </r>
       <r>   -16.3539     0.0000    96.0000 </r>
       <r>   -16.2634     0.0000    96.0000 </r>
       <r>   -16.1729     0.0000    96.0000 </r>
       <r>   -16.0824     0.0000    96.0000 </r>
       <r>   -15.9919     0.0000    96.0000 </r>
       <r>   -15.9014     0.0000    96.0000 </r>
       <r>   -15.8109     0.0000    96.0000 </r>
       <r>   -15.7204     0.0000    96.0000 </r>
       <r>   -15.6299     0.0000    96.0000 </r>
       <r>   -15.5394     0.0000    96.0000 </r>
       <r>   -15.4489     0.0000    96.0000 </r>
       <r>   -15.3584     0.0000    96.0000 </r>
       <r>   -15.2679     0.0000    96.0000 </r>
       <r>   -15.1774     0.0000    96.0000 </r>
       <r>   -15.0869     0.0000    96.0000 </r>
       <r>   -14.9964     0.0000    96.0000 </r>
       <r>   -14.9059     0.0000    96.0000 </r>
       <r>   -14.8154     0.0000    96.0000 </r>
       <r>   -14.7249     0.0000    96.0000 </r>
       <r>   -14.6344     0.0000    96.0000 </r>
       <r>   -14.5439     0.0000    96.0000 </r>
       <r>   -14.4534     0.0000    96.0000 </r>
       <r>   -14.3629     0.0000    96.0000 </r>
       <r>   -14.2724     0.0000    96.0000 </r>
       <r>   -14.1819     0.0000    96.0000 </r>
       <r>   -14.0914    22.1002    98.0000 </r>
       <r>   -14.0010     0.0000    98.0000 </r>
       <r>   -13.9105     0.0000    98.0000 </r>
       <r>   -13.8200     0.0000    98.0000 </r>
       <r>   -13.7295     0.0000    98.0000 </r>
       <r>   -13.6390     0.0000    98.0000 </r>
       <r>   -13.5485     0.0000    98.0000 </r>
       <r>   -13.4580     0.0000    98.0000 </r>
       <r>   -13.3675     0.0000    98.0000 </r>
       <r>   -13.2770     0.0000    98.0000 </r>
       <r>   -13.1865     3.3568    98.3038 </r>
       <r>   -13.0960    61.1082   105.5302 </r>
       <r>   -13.0055    43.2526   109.9262 </r>
       <r>   -12.9150    66.2425   115.9947 </r>
       <r>   -12.8245     0.0504   116.0046 </r>
       <r>   -12.7340    44.1499   120.0000 </r>
       <r>   -12.6435     0.0000   120.0000 </r>
       <r>   -12.5530    22.1002   122.0000 </r>
       <r>   -12.4625    44.1831   125.9984 </r>
       <r>   -12.3720    17.3916   127.5739 </r>
       <r>   -12.2815    43.9305   131.9756 </r>
       <r>   -12.1910     0.1487   132.0135 </r>
       <r>   -12.1005    21.9515   134.0000 </r>
       <r>   -12.0100     0.0000   134.0000 </r>
       <r>   -11.9195     0.0924   134.0084 </r>
       <r>   -11.8290    44.1080   138.0000 </r>
       <r>   -11.7385    80.7586   145.3084 </r>
       <r>   -11.6480    41.6782   149.7718 </r>
       <r>   -11.5575    22.1884   152.0254 </r>
       <r>   -11.4670    21.8192   154.0000 </r>
       <r>   -11.3765    22.1002   156.0000 </r>
       <r>   -11.2860     0.0000   156.0000 </r>
       <r>   -11.1955    16.6960   157.5109 </r>
       <r>   -11.1050    22.0272   159.9934 </r>
       <r>   -11.0145    44.1777   164.0000 </r>
       <r>   -10.9241    25.2994   166.2895 </r>
       <r>   -10.8336     0.0000   168.0000 </r>
       <r>   -10.7431     0.0000   168.0000 </r>
       <r>   -10.6526    22.1001   170.0000 </r>
       <r>   -10.5621     0.0000   170.0000 </r>
       <r>   -10.4716     3.2415   170.2933 </r>
       <r>   -10.3811    22.1002   174.0000 </r>
       <r>   -10.2906    22.1001   176.0000 </r>
       <r>   -10.2001    39.0736   179.5360 </r>
       <r>   -10.1096     0.0000   180.0000 </r>
       <r>   -10.0191     0.0000   180.0000 </r>
       <r>    -9.9286     0.0000   180.0000 </r>
       <r>    -9.8381    22.1002   182.0000 </r>
       <r>    -9.7476    44.0708   185.9883 </r>
       <r>    -9.6571    44.1182   189.9934 </r>
       <r>    -9.5666    21.8735   191.9795 </r>
       <r>    -9.4761    44.7971   196.0541 </r>
       <r>    -9.3856    21.4928   198.0000 </r>
       <r>    -9.2951    48.5606   202.3946 </r>
       <r>    -9.2046   165.3317   218.9620 </r>
       <r>    -9.1141    60.7575   229.4984 </r>
       <r>    -9.0236    43.5918   235.9862 </r>
       <r>    -8.9331    22.1000   238.0000 </r>
       <r>    -8.8426    18.4929   239.6736 </r>
       <r>    -8.7521    22.1002   242.0000 </r>
       <r>    -8.6616     2.5434   242.2302 </r>
       <r>    -8.5711     0.0000   244.0000 </r>
       <r>    -8.4806    37.1360   247.3607 </r>
       <r>    -8.3901    22.1002   250.0000 </r>
       <r>    -8.2996    22.0998   252.0000 </r>
       <r>    -8.2091    25.3547   254.2945 </r>
       <r>    -8.1186    79.5294   263.3061 </r>
       <r>    -8.0281    20.9759   265.8983 </r>
       <r>    -7.9376    43.6614   269.9512 </r>
       <r>    -7.8471    48.1024   274.3531 </r>
       <r>    -7.7567    66.3358   282.0032 </r>
       <r>    -7.6662   114.2881   292.3459 </r>
       <r>    -7.5757    44.1996   298.0000 </r>
       <r>    -7.4852     0.0000   298.0000 </r>
       <r>    -7.3947    68.1312   304.1657 </r>
       <r>    -7.3042    22.1002   308.0000 </r>
       <r>    -7.2137    22.1000   310.0000 </r>
       <r>    -7.1232     0.0000   310.0000 </r>
       <r>    -7.0327     0.0000   310.0000 </r>
       <r>    -6.9422     0.0000   310.0000 </r>
       <r>    -6.8517     0.0306   310.0028 </r>
       <r>    -6.7612    32.4464   312.9391 </r>
       <r>    -6.6707     0.0000   314.0000 </r>
       <r>    -6.5802    44.1970   317.9997 </r>
       <r>    -6.4897    71.5474   324.4748 </r>
       <r>    -6.3992   126.3191   337.4315 </r>
       <r>    -6.3087    61.6130   343.5758 </r>
       <r>    -6.2182     0.0000   344.0000 </r>
       <r>    -6.1277     0.1263   344.0114 </r>
       <r>    -6.0372    21.9739   346.0000 </r>
       <r>    -5.9467    22.1070   348.0006 </r>
       <r>    -5.8562    86.0943   355.7925 </r>
       <r>    -5.7657    43.4088   359.9284 </r>
       <r>    -5.6752     0.0000   360.0000 </r>
       <r>    -5.5847     0.0000   360.0000 </r>
       <r>    -5.4942    22.1001   362.0000 </r>
       <r>    -5.4037     0.0000   362.0000 </r>
       <r>    -5.3132     0.0000   362.0000 </r>
       <r>    -5.2227     6.5799   362.5955 </r>
       <r>    -5.1322    74.5465   370.7469 </r>
       <r>    -5.0417    22.0993   374.0000 </r>
       <r>    -4.9512    23.7313   376.1476 </r>
       <r>    -4.8607    66.3003   384.0000 </r>
       <r>    -4.7702     0.0000   384.0000 </r>
       <r>    -4.6798    22.1002   386.0000 </r>
       <r>    -4.5893     0.0000   386.0000 </r>
       <r>    -4.4988     0.0000   386.0000 </r>
       <r>    -4.4083     0.0000   386.0000 </r>
       <r>    -4.3178     0.0000   386.0000 </r>
       <r>    -4.2273     0.0000   386.0000 </r>
       <r>    -4.1368     0.0000   386.0000 </r>
       <r>    -4.0463     0.0000   386.0000 </r>
       <r>    -3.9558     0.0000   386.0000 </r>
       <r>    -3.8653     0.0000   386.0000 </r>
       <r>    -3.7748     0.0000   386.0000 </r>
       <r>    -3.6843     0.0000   386.0000 </r>
       <r>    -3.5938     0.0000   386.0000 </r>
       <r>    -3.5033     0.0000   386.0000 </r>
       <r>    -3.4128     0.0000   386.0000 </r>
       <r>    -3.3223     0.0000   386.0000 </r>
       <r>    -3.2318     0.0000   386.0000 </r>
       <r>    -3.1413     0.0000   386.0000 </r>
       <r>    -3.0508     0.0000   386.0000 </r>
       <r>    -2.9603     0.0000   386.0000 </r>
       <r>    -2.8698     0.0000   386.0000 </r>
       <r>    -2.7793     0.0000   386.0000 </r>
       <r>    -2.6888     0.0000   386.0000 </r>
       <r>    -2.5983     0.0000   386.0000 </r>
       <r>    -2.5078     0.0000   386.0000 </r>
       <r>    -2.4173     0.0000   386.0000 </r>
       <r>    -2.3268     0.0000   386.0000 </r>
       <r>    -2.2363     0.0000   386.0000 </r>
       <r>    -2.1458     0.0000   386.0000 </r>
       <r>    -2.0553     0.0000   386.0000 </r>
       <r>    -1.9648     0.0000   386.0000 </r>
       <r>    -1.8743     0.0000   386.0000 </r>
       <r>    -1.7838     0.0000   386.0000 </r>
       <r>    -1.6933     0.0000   386.0000 </r>
       <r>    -1.6028     0.0000   386.0000 </r>
       <r>    -1.5124     0.0000   386.0000 </r>
       <r>    -1.4219     0.0000   386.0000 </r>
       <r>    -1.3314     0.2976   386.0269 </r>
       <r>    -1.2409    21.8026   388.0000 </r>
       <r>    -1.1504    22.1002   390.0000 </r>
       <r>    -1.0599     0.0000   390.0000 </r>
       <r>    -0.9694     0.0000   390.0000 </r>
       <r>    -0.8789     0.0000   390.0000 </r>
       <r>    -0.7884     0.0000   390.0000 </r>
       <r>    -0.6979     0.0000   390.0000 </r>
       <r>    -0.6074     0.0000   390.0000 </r>
       <r>    -0.5169     0.0000   390.0000 </r>
       <r>    -0.4264     0.0000   390.0000 </r>
       <r>    -0.3359     0.0000   390.0000 </r>
       <r>    -0.2454     0.0000   390.0000 </r>
       <r>    -0.1549     0.0000   390.0000 </r>
       <r>    -0.0644     0.0000   390.0000 </r>
       <r>     0.0261     0.0000   390.0000 </r>
       <r>     0.1166    22.1001   392.0000 </r>
       <r>     0.2071    13.6234   393.2329 </r>
       <r>     0.2976    71.6649   400.4855 </r>
       <r>     0.3881    48.9318   406.5315 </r>
       <r>     0.4786    32.3564   410.9282 </r>
       <r>     0.5691    22.1002   414.0000 </r>
       <r>     0.6596    22.1002   416.0000 </r>
       <r>     0.7501    32.5453   418.9453 </r>
       <r>     0.8406   101.7665   429.2096 </r>
       <r>     0.9311    44.1022   434.0000 </r>
       <r>     1.0216    35.0931   437.1758 </r>
       <r>     1.1121    25.4633   440.3044 </r>
       <r>     1.2026     0.0000   442.0000 </r>
       <r>     1.2931     0.0000   442.0000 </r>
       <r>     1.3836     0.0000   442.0000 </r>
       <r>     1.4741     0.0295   442.0027 </r>
       <r>     1.5645    22.0707   444.0000 </r>
       <r>     1.6550     0.1206   444.0109 </r>
       <r>     1.7455   118.3288   454.7193 </r>
       <r>     1.8360    48.2412   460.3657 </r>
       <r>     1.9265    95.7834   472.6681 </r>
       <r>     2.0170    22.7478   476.0586 </r>
       <r>     2.1075    48.0564   480.4076 </r>
       <r>     2.1980    66.2722   488.0000 </r>
       <r>     2.2885     0.0000   488.0000 </r>
       <r>     2.3790     0.0000   488.0000 </r>
       <r>     2.4695     0.0000   488.0000 </r>
       <r>     2.5600     0.0000   488.0000 </r>
       <r>     2.6505     0.0000   488.0000 </r>
       <r>     2.7410     0.0000   488.0000 </r>
       <r>     2.8315     0.0000   488.0000 </r>
       <r>     2.9220     0.0000   488.0000 </r>
       <r>     3.0125     0.0000   488.0000 </r>
       <r>     3.1030     0.0000   488.0000 </r>
       <r>     3.1935     0.0000   488.0000 </r>
       <r>     3.2840     0.0000   488.0000 </r>
       <r>     3.3745     0.0000   488.0000 </r>
      </set>
     </set>
    </array>
   </total>
  </dos>
 </calculation>
 <structure name="finalpos" >
  <crystal>
   <varray name="basis" >
    <v>      17.59966831       0.00000000       0.00000000 </v>
    <v>      -8.79983416      15.24175986       0.00000000 </v>
    <v>       0.00000000       0.00000000      19.92151445 </v>
   </varray>
   <i name="volume">   5343.94461817 </i>
   <varray name="rec_basis" >
    <v>       0.05681925       0.03280461       0.00000000 </v>
    <v>       0.00000000       0.06560922       0.00000000 </v>
    <v>       0.00000000       0.00000000       0.05019699 </v>
   </varray>
  </crystal>
  <varray name="positions" >
   <v>       0.99943010       0.00005992       0.50000000 </v>
   <v>       0.14164706       0.99871895       0.50000000 </v>
   <v>       0.28492260       0.99841663       0.50000000 </v>
   <v>       0.42850047       0.99871895       0.50000000 </v>
   <v>       0.57205839       0.00005992       0.50000000 </v>
   <v>       0.71530655       0.00214292       0.50000000 </v>
   <v>       0.85826494       0.00214292       0.50000000 </v>
   <v>       0.00080792       0.14408264       0.50000000 </v>
   <v>       0.14259355       0.14244783       0.50000000 </v>
   <v>       0.28470221       0.14112972       0.50000000 </v>
   <v>       0.42785608       0.14112972       0.50000000 </v>
   <v>       0.57128286       0.14244783       0.50000000 </v>
   <v>       0.71470329       0.14408264       0.50000000 </v>
   <v>       0.85805263       0.14467669       0.50000000 </v>
   <v>       0.00095476       0.28713011       0.50000000 </v>
   <v>       0.14372552       0.28645370       0.50000000 </v>
   <v>       0.28540977       0.28469374       0.50000000 </v>
   <v>       0.42724431       0.28306005       0.50000000 </v>
   <v>       0.57071254       0.28469374       0.50000000 </v>
   <v>       0.71415674       0.28645370       0.50000000 </v>
   <v>       0.85760392       0.28713011       0.50000000 </v>
   <v>       0.00054479       0.42966101       0.50000000 </v>
   <v>       0.14422690       0.42957551       0.50000000 </v>
   <v>       0.28730213       0.42918005       0.50000000 </v>
   <v>       0.42797654       0.42569726       0.50000000 </v>
   <v>       0.56914930       0.42569726       0.50000000 </v>
   <v>       0.71330650       0.42918005       0.50000000 </v>
   <v>       0.85677719       0.42957551       0.50000000 </v>
   <v>       0.99928255       0.57181462       0.50000000 </v>
   <v>       0.14396064       0.57181462       0.50000000 </v>
   <v>       0.28862787       0.57181625       0.50000000 </v>
   <v>       0.43313209       0.57215564       0.50000000 </v>
   <v>       0.71045212       0.57215564       0.50000000 </v>
   <v>       0.85461695       0.57181625       0.50000000 </v>
   <v>       0.99707234       0.71370518       0.50000000 </v>
   <v>       0.14255519       0.71368182       0.50000000 </v>
   <v>       0.28806142       0.71370518       0.50000000 </v>
   <v>       0.43464191       0.71382540       0.50000000 </v>
   <v>       0.58510826       0.71626937       0.50000000 </v>
   <v>       0.70258968       0.71626937       0.50000000 </v>
   <v>       0.85061206       0.71382540       0.50000000 </v>
   <v>       0.99777175       0.85613493       0.50000000 </v>
   <v>       0.14160898       0.85534468       0.50000000 </v>
   <v>       0.28573247       0.85591288       0.50000000 </v>
   <v>       0.42979175       0.85613493       0.50000000 </v>
   <v>       0.57342541       0.85758690       0.50000000 </v>
   <v>       0.71640633       0.86138410       0.50000000 </v>
   <v>       0.85559006       0.85758690       0.50000000 </v>
   <v>       0.04754270       0.09547788       0.50000000 </v>
   <v>       0.18957833       0.09405657       0.50000000 </v>
   <v>       0.33254182       0.09365506       0.50000000 </v>
   <v>       0.47590681       0.09405657       0.50000000 </v>
   <v>       0.61936376       0.09547788       0.50000000 </v>
   <v>       0.76280004       0.09719274       0.50000000 </v>
   <v>       0.90582126       0.09719274       0.50000000 </v>
   <v>       0.04854983       0.23934281       0.50000000 </v>
   <v>       0.19048138       0.23782962       0.50000000 </v>
   <v>       0.33234878       0.23634667       0.50000000 </v>
   <v>       0.47542646       0.23634667       0.50000000 </v>
   <v>       0.61877681       0.23782962       0.50000000 </v>
   <v>       0.76222155       0.23934281       0.50000000 </v>
   <v>       0.90562797       0.23982737       0.50000000 </v>
   <v>       0.04871288       0.38232824       0.50000000 </v>
   <v>       0.19188940       0.38184213       0.50000000 </v>
   <v>       0.33352206       0.38013969       0.50000000 </v>
   <v>       0.47472270       0.37801683       0.50000000 </v>
   <v>       0.61804620       0.38013969       0.50000000 </v>
   <v>       0.76138130       0.38184213       0.50000000 </v>
   <v>       0.90504393       0.38232824       0.50000000 </v>
   <v>       0.04810654       0.52478452       0.50000000 </v>
   <v>       0.19263929       0.52476864       0.50000000 </v>
   <v>       0.33696521       0.52455433       0.50000000 </v>
   <v>       0.47833704       0.52146721       0.50000000 </v>
   <v>       0.61455874       0.52146721       0.50000000 </v>
   <v>       0.75901769       0.52455433       0.50000000 </v>
   <v>       0.90355792       0.52476864       0.50000000 </v>
   <v>       0.04642473       0.66685228       0.50000000 </v>
   <v>       0.19185612       0.66685228       0.50000000 </v>
   <v>       0.33777931       0.66688794       0.50000000 </v>
   <v>       0.48615700       0.66710760       0.50000000 </v>
   <v>       0.75237918       0.66710760       0.50000000 </v>
   <v>       0.90053720       0.66688794       0.50000000 </v>
   <v>       0.04582562       0.80879365       0.50000000 </v>
   <v>       0.19009580       0.80876303       0.50000000 </v>
   <v>       0.33439660       0.80879365       0.50000000 </v>
   <v>       0.47844872       0.80897069       0.50000000 </v>
   <v>       0.62209487       0.81129474       0.50000000 </v>
   <v>       0.76062845       0.81129474       0.50000000 </v>
   <v>       0.90195054       0.80897069       0.50000000 </v>
   <v>       0.04629157       0.95154386       0.50000000 </v>
   <v>       0.18948291       0.95113037       0.50000000 </v>
   <v>       0.33307603       0.95113037       0.50000000 </v>
   <v>       0.47668087       0.95154386       0.50000000 </v>
   <v>       0.62015751       0.95313740       0.50000000 </v>
   <v>       0.76355772       0.95568687       0.50000000 </v>
   <v>       0.90440847       0.95313740       0.50000000 </v>
   <v>       0.56830873       0.56518888       0.50000000 </v>
  </varray>
 </structure>
</modeling>
