<?xml version="1.0" encoding="ISO-8859-1"?>
<modeling>
 <generator>
  <i name="program" type="string">vasp </i>
  <i name="version" type="string">5.4.4.18Apr17-6-g9f103f2a35  </i>
  <i name="subversion" type="string">(build Oct 18 2020 22:16:12) gamma-only         parallel </i>
  <i name="platform" type="string">UA-vaughan-2020a </i>
  <i name="date" type="string">2023 03 21 </i>
  <i name="time" type="string">17:52:08 </i>
 </generator>
 <incar>
  <i type="string" name="PREC">accurate</i>
  <i type="int" name="IALGO">    38</i>
  <i type="logical" name="ADDGRID"> T  </i>
  <i type="int" name="NELMIN">     5</i>
  <i type="int" name="IBRION">    -1</i>
  <i name="EDIFF">      0.00000001</i>
  <i name="EDIFFG">     -0.00000001</i>
  <i type="int" name="NSW">     0</i>
  <i type="int" name="ISIF">     2</i>
  <i name="ENCUT">    500.00000000</i>
  <i type="logical" name="LREAL"> F  </i>
  <i type="int" name="ISMEAR">     0</i>
  <i name="SIGMA">      0.01000000</i>
  <i type="logical" name="LWAVE"> F  </i>
  <i type="logical" name="LCHARG"> F  </i>
  <v type="int" name="KPOINT_BSE">    -1     0     0     0</v>
 </incar>
 <structure name="primitive_cell" >
  <crystal>
   <varray name="basis" >
    <v>      17.59966831       0.00000000       0.00000000 </v>
    <v>      -8.79983416      15.24175986       0.00000000 </v>
    <v>       0.00000000       0.00000000      19.92151445 </v>
   </varray>
   <i name="volume">   5343.94461817 </i>
   <varray name="rec_basis" >
    <v>       0.05681925       0.03280461       0.00000000 </v>
    <v>       0.00000000       0.06560922       0.00000000 </v>
    <v>       0.00000000       0.00000000       0.05019699 </v>
   </varray>
  </crystal>
  <varray name="positions" >
   <v>      -0.00056990       0.00005992      -0.50000000 </v>
   <v>      -0.09559153      -0.04686260      -0.50000000 </v>
   <v>       0.04629157      -0.04845614      -0.50000000 </v>
   <v>       0.04754270       0.09547788      -0.50000000 </v>
   <v>      -0.14173506       0.00214292      -0.50000000 </v>
   <v>       0.14259355       0.14244783      -0.50000000 </v>
   <v>       0.14164706      -0.00128105      -0.50000000 </v>
   <v>      -0.00222825      -0.14386507      -0.50000000 </v>
   <v>      -0.14440994      -0.14241310      -0.50000000 </v>
   <v>       0.00080792       0.14465083      -0.50000000 </v>
   <v>       0.18957833       0.09405657      -0.50000000 </v>
   <v>      -0.09417874       0.09719274      -0.50000000 </v>
   <v>      -0.09804946      -0.19102931      -0.50000000 </v>
   <v>      -0.23644228      -0.04431313      -0.50000000 </v>
   <v>      -0.23937155      -0.18870526      -0.50000000 </v>
   <v>       0.19048138       0.23782962      -0.50000000 </v>
   <v>       0.04582562      -0.19120635      -0.50000000 </v>
   <v>       0.18948291      -0.04886963      -0.50000000 </v>
   <v>       0.04854983       0.23934281      -0.50000000 </v>
   <v>      -0.28359367      -0.13861590      -0.50000000 </v>
   <v>       0.28470221       0.14112972      -0.50000000 </v>
   <v>      -0.14194737       0.14467669      -0.50000000 </v>
   <v>      -0.14938794      -0.28617460      -0.50000000 </v>
   <v>       0.14160898      -0.14408712      -0.50000000 </v>
   <v>       0.14372552       0.28645370      -0.50000000 </v>
   <v>      -0.28469345       0.00214292      -0.50000000 </v>
   <v>      -0.00292766      -0.28629482      -0.50000000 </v>
   <v>       0.28540977       0.28469374      -0.50000000 </v>
   <v>       0.00095476       0.28713011      -0.50000000 </v>
   <v>       0.28492260      -0.00158337      -0.50000000 </v>
   <v>      -0.29741032      -0.28373063      -0.50000000 </v>
   <v>      -0.09946280      -0.33311206      -0.50000000 </v>
   <v>       0.33234878       0.23634667      -0.50000000 </v>
   <v>      -0.23719996       0.09719274      -0.50000000 </v>
   <v>       0.33254182       0.09365506      -0.50000000 </v>
   <v>      -0.09437203       0.23982737      -0.50000000 </v>
   <v>      -0.24762082      -0.33289240      -0.50000000 </v>
   <v>      -0.37790513      -0.18870526      -0.50000000 </v>
   <v>       0.19188940       0.38184213      -0.50000000 </v>
   <v>       0.19009580      -0.19123697      -0.50000000 </v>
   <v>      -0.37984249      -0.04686260      -0.50000000 </v>
   <v>       0.04642473      -0.33314772      -0.50000000 </v>
   <v>       0.33352206       0.38013969      -0.50000000 </v>
   <v>       0.04871288       0.38232824      -0.50000000 </v>
   <v>       0.33307603      -0.04886963      -0.50000000 </v>
   <v>      -0.41489174      -0.28373063      -0.50000000 </v>
   <v>      -0.42657459      -0.14241310      -0.50000000 </v>
   <v>       0.42724431       0.28306005      -0.50000000 </v>
   <v>      -0.14538305      -0.42818375      -0.50000000 </v>
   <v>      -0.28529671       0.14408264      -0.50000000 </v>
   <v>      -0.28954788      -0.42784436      -0.50000000 </v>
   <v>       0.42785608       0.14112972      -0.50000000 </v>
   <v>      -0.14239608       0.28713011      -0.50000000 </v>
   <v>       0.14422690       0.42957551      -0.50000000 </v>
   <v>       0.28730213       0.42918005      -0.50000000 </v>
   <v>       0.14255519      -0.28631818      -0.50000000 </v>
   <v>       0.28573247      -0.14408712      -0.50000000 </v>
   <v>      -0.24098231      -0.47544567      -0.50000000 </v>
   <v>       0.47542646       0.23634667      -0.50000000 </v>
   <v>      -0.23777845       0.23934281      -0.50000000 </v>
   <v>       0.42797654       0.42569726      -0.50000000 </v>
   <v>      -0.42794161       0.00005992      -0.50000000 </v>
   <v>      -0.00071745      -0.42818538      -0.50000000 </v>
   <v>       0.00054479       0.42966101      -0.50000000 </v>
   <v>       0.42850047      -0.00128105      -0.50000000 </v>
   <v>      -0.43169127      -0.43481112      -0.50000000 </v>
   <v>       0.47472270       0.37801683      -0.50000000 </v>
   <v>      -0.09644208      -0.47523136      -0.50000000 </v>
   <v>      -0.38063624       0.09547788      -0.50000000 </v>
   <v>       0.47590681       0.09405657      -0.50000000 </v>
   <v>      -0.09495607       0.38232824      -0.50000000 </v>
   <v>      -0.38544126      -0.47853279      -0.50000000 </v>
   <v>       0.48615700      -0.33289240      -0.50000000 </v>
   <v>       0.47844872      -0.19102931      -0.50000000 </v>
   <v>       0.19263929      -0.47523136      -0.50000000 </v>
   <v>       0.33696521      -0.47544567      -0.50000000 </v>
   <v>       0.19185612      -0.33314772      -0.50000000 </v>
   <v>       0.33439660      -0.19120635      -0.50000000 </v>
   <v>       0.43464191      -0.28617460      -0.50000000 </v>
   <v>      -0.28669350       0.42918005      -0.50000000 </v>
   <v>      -0.42928746       0.28469374      -0.50000000 </v>
   <v>      -0.28584326       0.28645370      -0.50000000 </v>
   <v>       0.28862787      -0.42818375      -0.50000000 </v>
   <v>       0.28806142      -0.28629482      -0.50000000 </v>
   <v>       0.47668087      -0.04845614      -0.50000000 </v>
   <v>       0.47833704      -0.47853279      -0.50000000 </v>
   <v>       0.04810654      -0.47521548      -0.50000000 </v>
   <v>       0.43313209      -0.42784436      -0.50000000 </v>
   <v>       0.42979175      -0.14386507      -0.50000000 </v>
   <v>      -0.43085070       0.42569726      -0.50000000 </v>
   <v>      -0.14322281       0.42957551      -0.50000000 </v>
   <v>      -0.42871714       0.14244783      -0.50000000 </v>
   <v>       0.14396064      -0.42818538      -0.50000000 </v>
   <v>      -0.23861870       0.38184213      -0.50000000 </v>
   <v>      -0.38122319       0.23782962      -0.50000000 </v>
   <v>      -0.38195380       0.38013969      -0.50000000 </v>
   <v>       0.33777931      -0.33311206      -0.50000000 </v>
  </varray>
 </structure>
 <varray name="primitive_index" >
  <v type="int" >        1 </v>
  <v type="int" >       96 </v>
  <v type="int" >       90 </v>
  <v type="int" >       49 </v>
  <v type="int" >        7 </v>
  <v type="int" >        9 </v>
  <v type="int" >        2 </v>
  <v type="int" >       42 </v>
  <v type="int" >       48 </v>
  <v type="int" >        8 </v>
  <v type="int" >       50 </v>
  <v type="int" >       55 </v>
  <v type="int" >       89 </v>
  <v type="int" >       95 </v>
  <v type="int" >       88 </v>
  <v type="int" >       57 </v>
  <v type="int" >       83 </v>
  <v type="int" >       91 </v>
  <v type="int" >       56 </v>
  <v type="int" >       47 </v>
  <v type="int" >       10 </v>
  <v type="int" >       14 </v>
  <v type="int" >       41 </v>
  <v type="int" >       43 </v>
  <v type="int" >       16 </v>
  <v type="int" >        6 </v>
  <v type="int" >       35 </v>
  <v type="int" >       17 </v>
  <v type="int" >       15 </v>
  <v type="int" >        3 </v>
  <v type="int" >       40 </v>
  <v type="int" >       82 </v>
  <v type="int" >       58 </v>
  <v type="int" >       54 </v>
  <v type="int" >       51 </v>
  <v type="int" >       62 </v>
  <v type="int" >       81 </v>
  <v type="int" >       87 </v>
  <v type="int" >       64 </v>
  <v type="int" >       84 </v>
  <v type="int" >       94 </v>
  <v type="int" >       77 </v>
  <v type="int" >       65 </v>
  <v type="int" >       63 </v>
  <v type="int" >       92 </v>
  <v type="int" >       39 </v>
  <v type="int" >       46 </v>
  <v type="int" >       18 </v>
  <v type="int" >       34 </v>
  <v type="int" >       13 </v>
  <v type="int" >       33 </v>
  <v type="int" >       11 </v>
  <v type="int" >       21 </v>
  <v type="int" >       23 </v>
  <v type="int" >       24 </v>
  <v type="int" >       36 </v>
  <v type="int" >       44 </v>
  <v type="int" >       75 </v>
  <v type="int" >       59 </v>
  <v type="int" >       61 </v>
  <v type="int" >       25 </v>
  <v type="int" >        5 </v>
  <v type="int" >       29 </v>
  <v type="int" >       22 </v>
  <v type="int" >        4 </v>
  <v type="int" >       97 </v>
  <v type="int" >       66 </v>
  <v type="int" >       76 </v>
  <v type="int" >       53 </v>
  <v type="int" >       52 </v>
  <v type="int" >       69 </v>
  <v type="int" >       74 </v>
  <v type="int" >       80 </v>
  <v type="int" >       86 </v>
  <v type="int" >       71 </v>
  <v type="int" >       72 </v>
  <v type="int" >       78 </v>
  <v type="int" >       85 </v>
  <v type="int" >       38 </v>
  <v type="int" >       27 </v>
  <v type="int" >       19 </v>
  <v type="int" >       20 </v>
  <v type="int" >       31 </v>
  <v type="int" >       37 </v>
  <v type="int" >       93 </v>
  <v type="int" >       73 </v>
  <v type="int" >       70 </v>
  <v type="int" >       32 </v>
  <v type="int" >       45 </v>
  <v type="int" >       26 </v>
  <v type="int" >       28 </v>
  <v type="int" >       12 </v>
  <v type="int" >       30 </v>
  <v type="int" >       68 </v>
  <v type="int" >       60 </v>
  <v type="int" >       67 </v>
  <v type="int" >       79 </v>
 </varray>
 <kpoints>
  <generation param="Gamma">
   <v type="int" name="divisions">       1        1        1 </v>
   <v name="usershift">      0.00000000       0.00000000       0.00000000 </v>
   <v name="genvec1">      1.00000000      -0.00000000       0.00000000 </v>
   <v name="genvec2">      0.00000000       1.00000000       0.00000000 </v>
   <v name="genvec3">      0.00000000       0.00000000       1.00000000 </v>
   <v name="shift">      0.00000000       0.00000000       0.00000000 </v>
  </generation>
  <varray name="kpointlist" >
   <v>       0.00000000       0.00000000       0.00000000 </v>
  </varray>
  <varray name="weights" >
   <v>       1.00000000 </v>
  </varray>
 </kpoints>
 <parameters>
  <separator name="general" >
   <i type="string" name="SYSTEM">unknown system</i>
   <i type="logical" name="LCOMPAT"> F  </i>
  </separator>
  <separator name="electronic" >
   <i type="string" name="PREC">accura</i>
   <i name="ENMAX">    500.00000000</i>
   <i name="ENAUG">    644.87300000</i>
   <i name="EDIFF">      0.00000001</i>
   <i type="int" name="IALGO">    38</i>
   <i type="int" name="IWAVPR">    10</i>
   <i type="int" name="NBANDS">   244</i>
   <i name="NELECT">    388.00000000</i>
   <i type="int" name="TURBO">     0</i>
   <i type="int" name="IRESTART">     0</i>
   <i type="int" name="NREBOOT">     0</i>
   <i type="int" name="NMIN">     0</i>
   <i name="EREF">      0.00000000</i>
   <separator name="electronic smearing" >
    <i type="int" name="ISMEAR">     0</i>
    <i name="SIGMA">      0.01000000</i>
    <i name="KSPACING">      0.50000000</i>
    <i type="logical" name="KGAMMA"> T  </i>
   </separator>
   <separator name="electronic projectors" >
    <i type="logical" name="LREAL"> F  </i>
    <v name="ROPT">      0.00000000      0.00000000      0.00000000</v>
    <i type="int" name="LMAXPAW">  -100</i>
    <i type="int" name="LMAXMIX">     2</i>
    <i type="logical" name="NLSPLINE"> F  </i>
   </separator>
   <separator name="electronic startup" >
    <i type="int" name="ISTART">     0</i>
    <i type="int" name="ICHARG">     2</i>
    <i type="int" name="INIWAV">     1</i>
   </separator>
   <separator name="electronic spin" >
    <i type="int" name="ISPIN">     1</i>
    <i type="logical" name="LNONCOLLINEAR"> F  </i>
    <v name="MAGMOM">      1.00000000      1.00000000      1.00000000      1.00000000      1.00000000      1.00000000      1.00000000      1.00000000      1.00000000      1.00000000      1.00000000      1.00000000      1.00000000      1.00000000      1.00000000      1.00000000      1.00000000      1.00000000      1.00000000      1.00000000
      1.00000000      1.00000000      1.00000000      1.00000000      1.00000000      1.00000000      1.00000000      1.00000000      1.00000000      1.00000000      1.00000000      1.00000000      1.00000000      1.00000000      1.00000000      1.00000000      1.00000000      1.00000000      1.00000000      1.00000000
      1.00000000      1.00000000      1.00000000      1.00000000      1.00000000      1.00000000      1.00000000      1.00000000      1.00000000      1.00000000      1.00000000      1.00000000      1.00000000      1.00000000      1.00000000      1.00000000      1.00000000      1.00000000      1.00000000      1.00000000
      1.00000000      1.00000000      1.00000000      1.00000000      1.00000000      1.00000000      1.00000000      1.00000000      1.00000000      1.00000000      1.00000000      1.00000000      1.00000000      1.00000000      1.00000000      1.00000000      1.00000000      1.00000000      1.00000000      1.00000000
      1.00000000      1.00000000      1.00000000      1.00000000      1.00000000      1.00000000      1.00000000      1.00000000      1.00000000      1.00000000      1.00000000      1.00000000      1.00000000      1.00000000      1.00000000      1.00000000      1.00000000</v>
    <i name="NUPDOWN">     -1.00000000</i>
    <i type="logical" name="LSORBIT"> F  </i>
    <v name="SAXIS">      0.00000000      0.00000000      1.00000000</v>
    <i type="logical" name="LSPIRAL"> F  </i>
    <v name="QSPIRAL">      0.00000000      0.00000000      0.00000000</v>
    <i type="logical" name="LZEROZ"> F  </i>
   </separator>
   <separator name="electronic exchange-correlation" >
    <i type="logical" name="LASPH"> F  </i>
    <i type="logical" name="LMETAGGA"> F  </i>
   </separator>
   <separator name="electronic convergence" >
    <i type="int" name="NELM">    60</i>
    <i type="int" name="NELMDL">    -5</i>
    <i type="int" name="NELMIN">     5</i>
    <i name="ENINI">    500.00000000</i>
    <separator name="electronic convergence detail" >
     <i type="logical" name="LDIAG"> T  </i>
     <i type="logical" name="LSUBROT"> F  </i>
     <i name="WEIMIN">      0.00000000</i>
     <i name="EBREAK">      0.00000000</i>
     <i name="DEPER">      0.30000000</i>
     <i type="int" name="NRMM">     4</i>
     <i name="TIME">      0.40000000</i>
    </separator>
   </separator>
   <separator name="electronic mixer" >
    <i name="AMIX">      0.40000000</i>
    <i name="BMIX">      1.00000000</i>
    <i name="AMIN">      0.10000000</i>
    <i name="AMIX_MAG">      1.60000000</i>
    <i name="BMIX_MAG">      1.00000000</i>
    <separator name="electronic mixer details" >
     <i type="int" name="IMIX">     4</i>
     <i type="logical" name="MIXFIRST"> F  </i>
     <i type="int" name="MAXMIX">   -45</i>
     <i name="WC">    100.00000000</i>
     <i type="int" name="INIMIX">     1</i>
     <i type="int" name="MIXPRE">     1</i>
     <i type="int" name="MREMOVE">     5</i>
    </separator>
   </separator>
   <separator name="electronic dipolcorrection" >
    <i type="logical" name="LDIPOL"> F  </i>
    <i type="logical" name="LMONO"> F  </i>
    <i type="int" name="IDIPOL">     0</i>
    <i name="EPSILON">      1.00000000</i>
    <v name="DIPOL">   -100.00000000   -100.00000000   -100.00000000</v>
    <i name="EFIELD">      0.00000000</i>
   </separator>
  </separator>
  <separator name="grids" >
   <i type="int" name="NGX">   128</i>
   <i type="int" name="NGY">   128</i>
   <i type="int" name="NGZ">   150</i>
   <i type="int" name="NGXF">   256</i>
   <i type="int" name="NGYF">   256</i>
   <i type="int" name="NGZF">   300</i>
   <i type="logical" name="ADDGRID"> T  </i>
  </separator>
  <separator name="ionic" >
   <i type="int" name="NSW">     0</i>
   <i type="int" name="IBRION">    -1</i>
   <i type="int" name="MDALGO">     0</i>
   <i type="int" name="ISIF">     2</i>
   <i name="PSTRESS">      0.00000000</i>
   <i name="EDIFFG">     -0.00000001</i>
   <i type="int" name="NFREE">     0</i>
   <i name="POTIM">      0.50000000</i>
   <i name="SMASS">     -3.00000000</i>
   <i name="SCALEE">      1.00000000</i>
  </separator>
  <separator name="ionic md" >
   <i name="TEBEG">      0.00010000</i>
   <i name="TEEND">      0.00010000</i>
   <i type="int" name="NBLOCK">     1</i>
   <i type="int" name="KBLOCK">     1</i>
   <i type="int" name="NPACO">   256</i>
   <i name="APACO">     16.00000000</i>
  </separator>
  <separator name="symmetry" >
   <i type="int" name="ISYM">     2</i>
   <i name="SYMPREC">      0.00001000</i>
  </separator>
  <separator name="dos" >
   <i type="int" name="LORBIT">     0</i>
   <v name="RWIGS">     -1.00000000     -1.00000000     -1.00000000</v>
   <i type="int" name="NEDOS">   301</i>
   <i name="EMIN">     10.00000000</i>
   <i name="EMAX">    -10.00000000</i>
   <i name="EFERMI">      0.00000000</i>
  </separator>
  <separator name="writing" >
   <i type="int" name="NWRITE">     2</i>
   <i type="logical" name="LWAVE"> F  </i>
   <i type="logical" name="LDOWNSAMPLE"> F  </i>
   <i type="logical" name="LCHARG"> F  </i>
   <i type="logical" name="LPARD"> F  </i>
   <i type="logical" name="LVTOT"> F  </i>
   <i type="logical" name="LVHAR"> F  </i>
   <i type="logical" name="LELF"> F  </i>
   <i type="logical" name="LOPTICS"> F  </i>
   <v name="STM">      0.00000000      0.00000000      0.00000000      0.00000000      0.00000000      0.00000000      0.00000000</v>
  </separator>
  <separator name="performance" >
   <i type="int" name="NPAR">     4</i>
   <i type="int" name="NSIM">     4</i>
   <i type="int" name="NBLK">    -1</i>
   <i type="logical" name="LPLANE"> T  </i>
   <i type="logical" name="LSCALAPACK"> T  </i>
   <i type="logical" name="LSCAAWARE"> F  </i>
   <i type="logical" name="LSCALU"> F  </i>
   <i type="logical" name="LASYNC"> F  </i>
   <i type="logical" name="LORBITALREAL"> F  </i>
  </separator>
  <separator name="miscellaneous" >
   <i type="int" name="IDIOT">     3</i>
   <i type="int" name="ISPECIAL">     0</i>
   <i type="logical" name="LMUSIC"> F  </i>
   <v name="POMASS">     10.81100000     14.00100000     12.01100000</v>
   <v name="DARWINR">      0.00000000      0.00000000      0.00000000</v>
   <v name="DARWINV">      1.00000000      1.00000000      1.00000000</v>
   <i type="logical" name="LCORR"> T  </i>
  </separator>
  <i type="logical" name="GGA_COMPAT"> T  </i>
  <i type="logical" name="LBERRY"> F  </i>
  <i type="int" name="ICORELEVEL">     0</i>
  <i type="logical" name="LDAU"> F  </i>
  <i type="int" name="I_CONSTRAINED_M">     0</i>
  <separator name="electronic exchange-correlation" >
   <i type="string" name="GGA">--</i>
   <i type="int" name="VOSKOWN">     0</i>
   <i type="logical" name="LHFCALC"> F  </i>
   <i type="string" name="PRECFOCK"></i>
   <i type="logical" name="LSYMGRAD"> F  </i>
   <i type="logical" name="LHFONE"> F  </i>
   <i type="logical" name="LRHFCALC"> F  </i>
   <i type="logical" name="LTHOMAS"> F  </i>
   <i type="logical" name="LMODELHF"> F  </i>
   <i name="ENCUT4O">     -1.00000000</i>
   <i type="int" name="EXXOEP">     0</i>
   <i type="int" name="FOURORBIT">     0</i>
   <i name="AEXX">      0.00000000</i>
   <i name="HFALPHA">      0.00000000</i>
   <i name="MCALPHA">      0.00000000</i>
   <i name="ALDAX">      1.00000000</i>
   <i name="AGGAX">      1.00000000</i>
   <i name="ALDAC">      1.00000000</i>
   <i name="AGGAC">      1.00000000</i>
   <i type="int" name="NKREDX">     1</i>
   <i type="int" name="NKREDY">     1</i>
   <i type="int" name="NKREDZ">     1</i>
   <i type="logical" name="SHIFTRED"> F  </i>
   <i type="logical" name="ODDONLY"> F  </i>
   <i type="logical" name="EVENONLY"> F  </i>
   <i type="int" name="LMAXFOCK">     0</i>
   <i type="int" name="NMAXFOCKAE">     0</i>
   <i type="logical" name="LFOCKAEDFT"> F  </i>
   <i name="HFSCREEN">      0.00000000</i>
   <i name="HFSCREENC">      0.00000000</i>
   <i type="int" name="NBANDSGWLOW">     0</i>
  </separator>
  <separator name="vdW DFT" >
   <i type="logical" name="LUSE_VDW"> F  </i>
   <i name="Zab_VDW">     -0.84910000</i>
   <i name="PARAM1">      0.12340000</i>
   <i name="PARAM2">      1.00000000</i>
   <i name="PARAM3">      0.00000000</i>
  </separator>
  <separator name="model GW" >
   <i type="int" name="MODEL_GW">     0</i>
   <i name="MODEL_EPS0">     33.05532754</i>
   <i name="MODEL_ALPHA">      1.00000000</i>
  </separator>
  <separator name="linear response parameters" >
   <i type="logical" name="LEPSILON"> F  </i>
   <i type="logical" name="LRPA"> F  </i>
   <i type="logical" name="LNABLA"> F  </i>
   <i type="logical" name="LVEL"> F  </i>
   <i type="int" name="KINTER">     0</i>
   <i name="CSHIFT">      0.10000000</i>
   <i name="OMEGAMAX">     -1.00000000</i>
   <i name="DEG_THRESHOLD">      0.00200000</i>
   <i name="RTIME">     -0.10000000</i>
   <i name="WPLASMAI">      0.00000000</i>
   <v name="DFIELD">      0.00000000      0.00000000      0.00000000</v>
   <v name="WPLASMA">      0.00000000      0.00000000      0.00000000      0.00000000      0.00000000      0.00000000      0.00000000      0.00000000      0.00000000</v>
  </separator>
  <separator name="orbital magnetization" >
   <i type="logical" name="NUCIND"> F  </i>
   <v name="MAGPOS">      0.00000000      0.00000000      0.00000000</v>
   <i type="logical" name="LNICSALL"> T  </i>
   <i type="logical" name="ORBITALMAG"> F  </i>
   <i type="logical" name="LMAGBLOCH"> F  </i>
   <i type="logical" name="LCHIMAG"> F  </i>
   <i type="logical" name="LGAUGE"> T  </i>
   <i type="int" name="MAGATOM">     0</i>
   <v name="MAGDIPOL">      0.00000000      0.00000000      0.00000000</v>
   <v name="AVECCONST">      0.00000000      0.00000000      0.00000000</v>
  </separator>
  <separator name="response functions" >
   <i type="logical" name="LADDER"> F  </i>
   <i type="logical" name="LRPAFORCE"> F  </i>
   <i type="logical" name="LFXC"> F  </i>
   <i type="logical" name="LHARTREE"> T  </i>
   <i type="int" name="IBSE">     0</i>
   <v type="int" name="KPOINT">    -1     0     0     0</v>
   <i type="logical" name="LTCTE"> F  </i>
   <i type="logical" name="LTETE"> F  </i>
   <i type="logical" name="LTRIPLET"> F  </i>
   <i type="logical" name="LFXCEPS"> F  </i>
   <i type="logical" name="LFXHEG"> F  </i>
   <i type="int" name="NATURALO">     2</i>
   <i type="logical" name="L2ORDER"> F  </i>
   <i type="logical" name="LMP2LT"> F  </i>
   <i type="logical" name="LUSEW"> F  </i>
   <i name="ENCUTGW">     -2.00000000</i>
   <i name="ENCUTGWSOFT">     -2.00000000</i>
   <i name="ENCUTLF">     -1.00000000</i>
   <i type="int" name="LMAXMP2">    -1</i>
   <i name="SCISSOR">      0.00000000</i>
   <i type="int" name="NOMEGA">     0</i>
   <i type="int" name="NOMEGAR">     0</i>
   <i type="int" name="NBANDSGW">    -1</i>
   <i type="int" name="NBANDSO">    -1</i>
   <i type="int" name="NBANDSV">    -1</i>
   <i type="int" name="NELM">     1</i>
   <i type="int" name="NELMHF">     1</i>
   <i type="int" name="DIM">     3</i>
   <i type="int" name="ANTIRES">     0</i>
   <i name="OMEGAMAX">    -30.00000000</i>
   <i name="OMEGAMIN">    -30.00000000</i>
   <i name="OMEGATL">   -200.00000000</i>
   <i type="int" name="OMEGAGRID">   140</i>
   <i name="CSHIFT">     -0.10000000</i>
   <i type="logical" name="SELFENERGY"> F  </i>
   <i type="logical" name="LSPECTRAL"> F  </i>
   <i type="logical" name="LSPECTRALGW"> F  </i>
   <i type="logical" name="LSINGLES"> F  </i>
   <i type="logical" name="LFERMIGW"> F  </i>
   <i type="logical" name="ODDONLYGW"> F  </i>
   <i type="logical" name="EVENONLYGW"> F  </i>
   <i type="int" name="NKREDLFX">     1</i>
   <i type="int" name="NKREDLFY">     1</i>
   <i type="int" name="NKREDLFZ">     1</i>
   <i type="int" name="MAXMEM">  2800</i>
   <i type="int" name="TELESCOPE">     0</i>
   <i type="int" name="TAUPAR">     1</i>
   <i type="int" name="OMEGAPAR">    -1</i>
   <i name="LAMBDA">      1.00000000</i>
  </separator>
  <separator name="External order field" >
   <i name="OFIELD_KAPPA">      0.00000000</i>
   <v name="OFIELD_K">      0.00000000      0.00000000      0.00000000</v>
   <i name="OFIELD_Q6_NEAR">      0.00000000</i>
   <i name="OFIELD_Q6_FAR">      0.00000000</i>
   <i name="OFIELD_A">      0.00000000</i>
  </separator>
 </parameters>
 <atominfo>
  <atoms>      97 </atoms>
  <types>       3 </types>
  <array name="atoms" >
   <dimension dim="1">ion</dimension>
   <field type="string">element</field>
   <field type="int">atomtype</field>
   <set>
    <rc><c>B </c><c>   1</c></rc>
    <rc><c>B </c><c>   1</c></rc>
    <rc><c>B </c><c>   1</c></rc>
    <rc><c>B </c><c>   1</c></rc>
    <rc><c>B </c><c>   1</c></rc>
    <rc><c>B </c><c>   1</c></rc>
    <rc><c>B </c><c>   1</c></rc>
    <rc><c>B </c><c>   1</c></rc>
    <rc><c>B </c><c>   1</c></rc>
    <rc><c>B </c><c>   1</c></rc>
    <rc><c>B </c><c>   1</c></rc>
    <rc><c>B </c><c>   1</c></rc>
    <rc><c>B </c><c>   1</c></rc>
    <rc><c>B </c><c>   1</c></rc>
    <rc><c>B </c><c>   1</c></rc>
    <rc><c>B </c><c>   1</c></rc>
    <rc><c>B </c><c>   1</c></rc>
    <rc><c>B </c><c>   1</c></rc>
    <rc><c>B </c><c>   1</c></rc>
    <rc><c>B </c><c>   1</c></rc>
    <rc><c>B </c><c>   1</c></rc>
    <rc><c>B </c><c>   1</c></rc>
    <rc><c>B </c><c>   1</c></rc>
    <rc><c>B </c><c>   1</c></rc>
    <rc><c>B </c><c>   1</c></rc>
    <rc><c>B </c><c>   1</c></rc>
    <rc><c>B </c><c>   1</c></rc>
    <rc><c>B </c><c>   1</c></rc>
    <rc><c>B </c><c>   1</c></rc>
    <rc><c>B </c><c>   1</c></rc>
    <rc><c>B </c><c>   1</c></rc>
    <rc><c>B </c><c>   1</c></rc>
    <rc><c>B </c><c>   1</c></rc>
    <rc><c>B </c><c>   1</c></rc>
    <rc><c>B </c><c>   1</c></rc>
    <rc><c>B </c><c>   1</c></rc>
    <rc><c>B </c><c>   1</c></rc>
    <rc><c>B </c><c>   1</c></rc>
    <rc><c>B </c><c>   1</c></rc>
    <rc><c>B </c><c>   1</c></rc>
    <rc><c>B </c><c>   1</c></rc>
    <rc><c>B </c><c>   1</c></rc>
    <rc><c>B </c><c>   1</c></rc>
    <rc><c>B </c><c>   1</c></rc>
    <rc><c>B </c><c>   1</c></rc>
    <rc><c>B </c><c>   1</c></rc>
    <rc><c>B </c><c>   1</c></rc>
    <rc><c>B </c><c>   1</c></rc>
    <rc><c>N </c><c>   2</c></rc>
    <rc><c>N </c><c>   2</c></rc>
    <rc><c>N </c><c>   2</c></rc>
    <rc><c>N </c><c>   2</c></rc>
    <rc><c>N </c><c>   2</c></rc>
    <rc><c>N </c><c>   2</c></rc>
    <rc><c>N </c><c>   2</c></rc>
    <rc><c>N </c><c>   2</c></rc>
    <rc><c>N </c><c>   2</c></rc>
    <rc><c>N </c><c>   2</c></rc>
    <rc><c>N </c><c>   2</c></rc>
    <rc><c>N </c><c>   2</c></rc>
    <rc><c>N </c><c>   2</c></rc>
    <rc><c>N </c><c>   2</c></rc>
    <rc><c>N </c><c>   2</c></rc>
    <rc><c>N </c><c>   2</c></rc>
    <rc><c>N </c><c>   2</c></rc>
    <rc><c>N </c><c>   2</c></rc>
    <rc><c>N </c><c>   2</c></rc>
    <rc><c>N </c><c>   2</c></rc>
    <rc><c>N </c><c>   2</c></rc>
    <rc><c>N </c><c>   2</c></rc>
    <rc><c>N </c><c>   2</c></rc>
    <rc><c>N </c><c>   2</c></rc>
    <rc><c>N </c><c>   2</c></rc>
    <rc><c>N </c><c>   2</c></rc>
    <rc><c>N </c><c>   2</c></rc>
    <rc><c>N </c><c>   2</c></rc>
    <rc><c>N </c><c>   2</c></rc>
    <rc><c>N </c><c>   2</c></rc>
    <rc><c>N </c><c>   2</c></rc>
    <rc><c>N </c><c>   2</c></rc>
    <rc><c>N </c><c>   2</c></rc>
    <rc><c>N </c><c>   2</c></rc>
    <rc><c>N </c><c>   2</c></rc>
    <rc><c>N </c><c>   2</c></rc>
    <rc><c>N </c><c>   2</c></rc>
    <rc><c>N </c><c>   2</c></rc>
    <rc><c>N </c><c>   2</c></rc>
    <rc><c>N </c><c>   2</c></rc>
    <rc><c>N </c><c>   2</c></rc>
    <rc><c>N </c><c>   2</c></rc>
    <rc><c>N </c><c>   2</c></rc>
    <rc><c>N </c><c>   2</c></rc>
    <rc><c>N </c><c>   2</c></rc>
    <rc><c>N </c><c>   2</c></rc>
    <rc><c>N </c><c>   2</c></rc>
    <rc><c>N </c><c>   2</c></rc>
    <rc><c>C </c><c>   3</c></rc>
   </set>
  </array>
  <array name="atomtypes" >
   <dimension dim="1">type</dimension>
   <field type="int">atomspertype</field>
   <field type="string">element</field>
   <field>mass</field>
   <field>valence</field>
   <field type="string">pseudopotential</field>
   <set>
    <rc><c>  48</c><c>B </c><c>     10.81100000</c><c>      3.00000000</c><c>  PAW_PBE B 06Sep2000                   </c></rc>
    <rc><c>  48</c><c>N </c><c>     14.00100000</c><c>      5.00000000</c><c>  PAW_PBE N 08Apr2002                   </c></rc>
    <rc><c>   1</c><c>C </c><c>     12.01100000</c><c>      4.00000000</c><c>  PAW_PBE C 08Apr2002                   </c></rc>
   </set>
  </array>
 </atominfo>
 <structure name="initialpos" >
  <crystal>
   <varray name="basis" >
    <v>      17.59966831       0.00000000       0.00000000 </v>
    <v>      -8.79983416      15.24175986       0.00000000 </v>
    <v>       0.00000000       0.00000000      19.92151445 </v>
   </varray>
   <i name="volume">   5343.94461817 </i>
   <varray name="rec_basis" >
    <v>       0.05681925       0.03280461       0.00000000 </v>
    <v>       0.00000000       0.06560922       0.00000000 </v>
    <v>       0.00000000       0.00000000       0.05019699 </v>
   </varray>
  </crystal>
  <varray name="positions" >
   <v>       0.99943010       0.00005992       0.50000000 </v>
   <v>       0.14164706       0.99871895       0.50000000 </v>
   <v>       0.28492260       0.99841663       0.50000000 </v>
   <v>       0.42850047       0.99871895       0.50000000 </v>
   <v>       0.57205839       0.00005992       0.50000000 </v>
   <v>       0.71530655       0.00214292       0.50000000 </v>
   <v>       0.85826494       0.00214292       0.50000000 </v>
   <v>       0.00080792       0.14465083       0.50000000 </v>
   <v>       0.14259355       0.14244783       0.50000000 </v>
   <v>       0.28470221       0.14112972       0.50000000 </v>
   <v>       0.42785608       0.14112972       0.50000000 </v>
   <v>       0.57128286       0.14244783       0.50000000 </v>
   <v>       0.71470329       0.14408264       0.50000000 </v>
   <v>       0.85805263       0.14467669       0.50000000 </v>
   <v>       0.00095476       0.28713011       0.50000000 </v>
   <v>       0.14372552       0.28645370       0.50000000 </v>
   <v>       0.28540977       0.28469374       0.50000000 </v>
   <v>       0.42724431       0.28306005       0.50000000 </v>
   <v>       0.57071254       0.28469374       0.50000000 </v>
   <v>       0.71415674       0.28645370       0.50000000 </v>
   <v>       0.85760392       0.28713011       0.50000000 </v>
   <v>       0.00054479       0.42966101       0.50000000 </v>
   <v>       0.14422690       0.42957551       0.50000000 </v>
   <v>       0.28730213       0.42918005       0.50000000 </v>
   <v>       0.42797654       0.42569726       0.50000000 </v>
   <v>       0.56914930       0.42569726       0.50000000 </v>
   <v>       0.71330650       0.42918005       0.50000000 </v>
   <v>       0.85677719       0.42957551       0.50000000 </v>
   <v>       0.99928255       0.57181462       0.50000000 </v>
   <v>       0.14396064       0.57181462       0.50000000 </v>
   <v>       0.28862787       0.57181625       0.50000000 </v>
   <v>       0.43313209       0.57215564       0.50000000 </v>
   <v>       0.71045212       0.57215564       0.50000000 </v>
   <v>       0.85461695       0.57181625       0.50000000 </v>
   <v>       0.99707234       0.71370518       0.50000000 </v>
   <v>       0.14255519       0.71368182       0.50000000 </v>
   <v>       0.28806142       0.71370518       0.50000000 </v>
   <v>       0.43464191       0.71382540       0.50000000 </v>
   <v>       0.58510826       0.71626937       0.50000000 </v>
   <v>       0.70258968       0.71626937       0.50000000 </v>
   <v>       0.85061206       0.71382540       0.50000000 </v>
   <v>       0.99777175       0.85613493       0.50000000 </v>
   <v>       0.14160898       0.85591288       0.50000000 </v>
   <v>       0.28573247       0.85591288       0.50000000 </v>
   <v>       0.42979175       0.85613493       0.50000000 </v>
   <v>       0.57342541       0.85758690       0.50000000 </v>
   <v>       0.71640633       0.86138410       0.50000000 </v>
   <v>       0.85559006       0.85758690       0.50000000 </v>
   <v>       0.04754270       0.09547788       0.50000000 </v>
   <v>       0.18957833       0.09405657       0.50000000 </v>
   <v>       0.33254182       0.09365506       0.50000000 </v>
   <v>       0.47590681       0.09405657       0.50000000 </v>
   <v>       0.61936376       0.09547788       0.50000000 </v>
   <v>       0.76280004       0.09719274       0.50000000 </v>
   <v>       0.90582126       0.09719274       0.50000000 </v>
   <v>       0.04854983       0.23934281       0.50000000 </v>
   <v>       0.19048138       0.23782962       0.50000000 </v>
   <v>       0.33234878       0.23634667       0.50000000 </v>
   <v>       0.47542646       0.23634667       0.50000000 </v>
   <v>       0.61877681       0.23782962       0.50000000 </v>
   <v>       0.76222155       0.23934281       0.50000000 </v>
   <v>       0.90562797       0.23982737       0.50000000 </v>
   <v>       0.04871288       0.38232824       0.50000000 </v>
   <v>       0.19188940       0.38184213       0.50000000 </v>
   <v>       0.33352206       0.38013969       0.50000000 </v>
   <v>       0.47472270       0.37801683       0.50000000 </v>
   <v>       0.61804620       0.38013969       0.50000000 </v>
   <v>       0.76138130       0.38184213       0.50000000 </v>
   <v>       0.90504393       0.38232824       0.50000000 </v>
   <v>       0.04810654       0.52478452       0.50000000 </v>
   <v>       0.19263929       0.52476864       0.50000000 </v>
   <v>       0.33696521       0.52455433       0.50000000 </v>
   <v>       0.47833704       0.52146721       0.50000000 </v>
   <v>       0.61455874       0.52146721       0.50000000 </v>
   <v>       0.75901769       0.52455433       0.50000000 </v>
   <v>       0.90355792       0.52476864       0.50000000 </v>
   <v>       0.04642473       0.66685228       0.50000000 </v>
   <v>       0.19185612       0.66685228       0.50000000 </v>
   <v>       0.33777931       0.66688794       0.50000000 </v>
   <v>       0.48615700       0.66710760       0.50000000 </v>
   <v>       0.75237918       0.66710760       0.50000000 </v>
   <v>       0.90053720       0.66688794       0.50000000 </v>
   <v>       0.04582562       0.80879365       0.50000000 </v>
   <v>       0.19009580       0.80876303       0.50000000 </v>
   <v>       0.33439660       0.80879365       0.50000000 </v>
   <v>       0.47844872       0.80897069       0.50000000 </v>
   <v>       0.62209487       0.81129474       0.50000000 </v>
   <v>       0.76062845       0.81129474       0.50000000 </v>
   <v>       0.90195054       0.80897069       0.50000000 </v>
   <v>       0.04629157       0.95154386       0.50000000 </v>
   <v>       0.18948291       0.95113037       0.50000000 </v>
   <v>       0.33307603       0.95113037       0.50000000 </v>
   <v>       0.47668087       0.95154386       0.50000000 </v>
   <v>       0.62015751       0.95313740       0.50000000 </v>
   <v>       0.76355772       0.95568687       0.50000000 </v>
   <v>       0.90440847       0.95313740       0.50000000 </v>
   <v>       0.56830873       0.56518888       0.50000000 </v>
  </varray>
 </structure>
 <calculation>
  <scstep>
   <time name="dav">    2.36    2.38</time>
   <time name="total">    2.73    2.83</time>
   <energy>
    <i name="alphaZ">    156.50993408 </i>
    <i name="ewald">  58206.79229783 </i>
    <i name="hartreedc"> -70374.20997434 </i>
    <i name="XCdc">   1302.10884968 </i>
    <i name="pawpsdc">  12033.28670802 </i>
    <i name="pawaedc"> -12049.96799276 </i>
    <i name="eentropy">     -0.00000000 </i>
    <i name="bandstr">   -904.52867494 </i>
    <i name="atom">  16260.93880140 </i>
    <i name="e_fr_energy">   4630.92994897 </i>
    <i name="e_wo_entrp">   4630.92994897 </i>
    <i name="e_0_energy">   4630.92994897 </i>
   </energy>
  </scstep>
  <scstep>
   <time name="dav">    3.01    3.05</time>
   <time name="total">    3.01    3.05</time>
   <energy>
    <i name="e_fr_energy">    216.80683088 </i>
    <i name="e_wo_entrp">    216.80683088 </i>
    <i name="e_0_energy">    216.80683088 </i>
   </energy>
  </scstep>
  <scstep>
   <time name="dav">    2.48    2.51</time>
   <time name="total">    2.48    2.51</time>
   <energy>
    <i name="e_fr_energy">   -867.45825296 </i>
    <i name="e_wo_entrp">   -867.45825296 </i>
    <i name="e_0_energy">   -867.45825296 </i>
   </energy>
  </scstep>
  <scstep>
   <time name="dav">    2.48    2.51</time>
   <time name="total">    2.48    2.51</time>
   <energy>
    <i name="e_fr_energy">   -934.19623099 </i>
    <i name="e_wo_entrp">   -934.19623099 </i>
    <i name="e_0_energy">   -934.19623099 </i>
   </energy>
  </scstep>
  <scstep>
   <time name="dav">    2.50    2.53</time>
   <time name="total">    2.94    2.98</time>
   <energy>
    <i name="e_fr_energy">   -935.77557426 </i>
    <i name="e_wo_entrp">   -935.77557426 </i>
    <i name="e_0_energy">   -935.77557426 </i>
   </energy>
  </scstep>
  <scstep>
   <time name="dav">    2.34    2.36</time>
   <time name="total">    3.14    3.18</time>
   <energy>
    <i name="e_fr_energy">   -858.73128955 </i>
    <i name="e_wo_entrp">   -858.73128955 </i>
    <i name="e_0_energy">   -858.73128955 </i>
   </energy>
  </scstep>
  <scstep>
   <time name="dav">    2.92    2.95</time>
   <time name="total">    3.75    3.82</time>
   <energy>
    <i name="e_fr_energy">   -850.19305118 </i>
    <i name="e_wo_entrp">   -850.19305118 </i>
    <i name="e_0_energy">   -850.19305118 </i>
   </energy>
  </scstep>
  <scstep>
   <time name="dav">    2.28    2.31</time>
   <time name="total">    3.07    3.13</time>
   <energy>
    <i name="e_fr_energy">   -845.92582139 </i>
    <i name="e_wo_entrp">   -845.92582032 </i>
    <i name="e_0_energy">   -845.92582086 </i>
   </energy>
  </scstep>
  <scstep>
   <time name="dav">    2.31    2.33</time>
   <time name="total">    3.11    3.16</time>
   <energy>
    <i name="e_fr_energy">   -845.80050761 </i>
    <i name="e_wo_entrp">   -845.80050761 </i>
    <i name="e_0_energy">   -845.80050761 </i>
   </energy>
  </scstep>
  <scstep>
   <time name="dav">    2.37    2.40</time>
   <time name="total">    3.17    3.22</time>
   <energy>
    <i name="e_fr_energy">   -845.63931475 </i>
    <i name="e_wo_entrp">   -845.63931475 </i>
    <i name="e_0_energy">   -845.63931475 </i>
   </energy>
  </scstep>
  <scstep>
   <time name="dav">    2.22    2.25</time>
   <time name="total">    3.02    3.07</time>
   <energy>
    <i name="e_fr_energy">   -845.58672528 </i>
    <i name="e_wo_entrp">   -845.58672528 </i>
    <i name="e_0_energy">   -845.58672528 </i>
   </energy>
  </scstep>
  <scstep>
   <time name="dav">    2.26    2.29</time>
   <time name="total">    3.07    3.12</time>
   <energy>
    <i name="e_fr_energy">   -845.57374084 </i>
    <i name="e_wo_entrp">   -845.57374084 </i>
    <i name="e_0_energy">   -845.57374084 </i>
   </energy>
  </scstep>
  <scstep>
   <time name="dav">    2.22    2.25</time>
   <time name="total">    3.03    3.08</time>
   <energy>
    <i name="e_fr_energy">   -845.58435059 </i>
    <i name="e_wo_entrp">   -845.58435059 </i>
    <i name="e_0_energy">   -845.58435059 </i>
   </energy>
  </scstep>
  <scstep>
   <time name="dav">    2.21    2.25</time>
   <time name="total">    3.01    3.08</time>
   <energy>
    <i name="e_fr_energy">   -845.59385649 </i>
    <i name="e_wo_entrp">   -845.59385649 </i>
    <i name="e_0_energy">   -845.59385649 </i>
   </energy>
  </scstep>
  <scstep>
   <time name="dav">    2.17    2.20</time>
   <time name="total">    2.97    3.05</time>
   <energy>
    <i name="e_fr_energy">   -845.62512012 </i>
    <i name="e_wo_entrp">   -845.62512012 </i>
    <i name="e_0_energy">   -845.62512012 </i>
   </energy>
  </scstep>
  <scstep>
   <time name="dav">    2.19    2.21</time>
   <time name="total">    3.00    3.03</time>
   <energy>
    <i name="e_fr_energy">   -845.64155015 </i>
    <i name="e_wo_entrp">   -845.64155015 </i>
    <i name="e_0_energy">   -845.64155015 </i>
   </energy>
  </scstep>
  <scstep>
   <time name="dav">    2.29    2.33</time>
   <time name="total">    3.09    3.15</time>
   <energy>
    <i name="e_fr_energy">   -845.64779765 </i>
    <i name="e_wo_entrp">   -845.64779765 </i>
    <i name="e_0_energy">   -845.64779765 </i>
   </energy>
  </scstep>
  <scstep>
   <time name="dav">    2.19    2.23</time>
   <time name="total">    3.00    3.06</time>
   <energy>
    <i name="e_fr_energy">   -845.65100083 </i>
    <i name="e_wo_entrp">   -845.65100083 </i>
    <i name="e_0_energy">   -845.65100083 </i>
   </energy>
  </scstep>
  <scstep>
   <time name="dav">    2.31    2.34</time>
   <time name="total">    3.12    3.17</time>
   <energy>
    <i name="e_fr_energy">   -845.65203152 </i>
    <i name="e_wo_entrp">   -845.65203152 </i>
    <i name="e_0_energy">   -845.65203152 </i>
   </energy>
  </scstep>
  <scstep>
   <time name="dav">    2.23    2.25</time>
   <time name="total">    3.03    3.08</time>
   <energy>
    <i name="e_fr_energy">   -845.65245192 </i>
    <i name="e_wo_entrp">   -845.65245192 </i>
    <i name="e_0_energy">   -845.65245192 </i>
   </energy>
  </scstep>
  <scstep>
   <time name="dav">    2.25    2.28</time>
   <time name="total">    3.06    3.11</time>
   <energy>
    <i name="e_fr_energy">   -845.65265270 </i>
    <i name="e_wo_entrp">   -845.65265270 </i>
    <i name="e_0_energy">   -845.65265270 </i>
   </energy>
  </scstep>
  <scstep>
   <time name="dav">    2.21    2.24</time>
   <time name="total">    3.01    3.07</time>
   <energy>
    <i name="e_fr_energy">   -845.65276514 </i>
    <i name="e_wo_entrp">   -845.65276514 </i>
    <i name="e_0_energy">   -845.65276514 </i>
   </energy>
  </scstep>
  <scstep>
   <time name="dav">    2.22    2.25</time>
   <time name="total">    3.03    3.08</time>
   <energy>
    <i name="e_fr_energy">   -845.65284358 </i>
    <i name="e_wo_entrp">   -845.65284358 </i>
    <i name="e_0_energy">   -845.65284358 </i>
   </energy>
  </scstep>
  <scstep>
   <time name="dav">    2.30    2.33</time>
   <time name="total">    3.10    3.16</time>
   <energy>
    <i name="e_fr_energy">   -845.65288242 </i>
    <i name="e_wo_entrp">   -845.65288242 </i>
    <i name="e_0_energy">   -845.65288242 </i>
   </energy>
  </scstep>
  <scstep>
   <time name="dav">    2.24    2.26</time>
   <time name="total">    3.05    3.10</time>
   <energy>
    <i name="e_fr_energy">   -845.65290058 </i>
    <i name="e_wo_entrp">   -845.65290058 </i>
    <i name="e_0_energy">   -845.65290058 </i>
   </energy>
  </scstep>
  <scstep>
   <time name="dav">    2.23    2.26</time>
   <time name="total">    3.05    3.09</time>
   <energy>
    <i name="e_fr_energy">   -845.65291730 </i>
    <i name="e_wo_entrp">   -845.65291730 </i>
    <i name="e_0_energy">   -845.65291730 </i>
   </energy>
  </scstep>
  <scstep>
   <time name="dav">    2.18    2.20</time>
   <time name="total">    3.00    3.04</time>
   <energy>
    <i name="e_fr_energy">   -845.65292055 </i>
    <i name="e_wo_entrp">   -845.65292055 </i>
    <i name="e_0_energy">   -845.65292055 </i>
   </energy>
  </scstep>
  <scstep>
   <time name="dav">    1.96    1.98</time>
   <time name="total">    2.79    2.82</time>
   <energy>
    <i name="e_fr_energy">   -845.65292182 </i>
    <i name="e_wo_entrp">   -845.65292182 </i>
    <i name="e_0_energy">   -845.65292182 </i>
   </energy>
  </scstep>
  <scstep>
   <time name="dav">    1.77    1.78</time>
   <time name="total">    2.58    2.62</time>
   <energy>
    <i name="e_fr_energy">   -845.65292212 </i>
    <i name="e_wo_entrp">   -845.65292212 </i>
    <i name="e_0_energy">   -845.65292212 </i>
   </energy>
  </scstep>
  <scstep>
   <time name="dav">    1.67    1.69</time>
   <time name="total">    2.49    2.53</time>
   <energy>
    <i name="e_fr_energy">   -845.65292224 </i>
    <i name="e_wo_entrp">   -845.65292224 </i>
    <i name="e_0_energy">   -845.65292224 </i>
   </energy>
  </scstep>
  <scstep>
   <time name="dav">    1.67    1.68</time>
   <time name="total">    2.50    2.52</time>
   <energy>
    <i name="e_fr_energy">   -845.65292229 </i>
    <i name="e_wo_entrp">   -845.65292229 </i>
    <i name="e_0_energy">   -845.65292229 </i>
   </energy>
  </scstep>
  <scstep>
   <time name="dav">    1.72    1.73</time>
   <time name="total">    2.55    2.59</time>
   <energy>
    <i name="e_fr_energy">   -845.65292233 </i>
    <i name="e_wo_entrp">   -845.65292233 </i>
    <i name="e_0_energy">   -845.65292233 </i>
   </energy>
  </scstep>
  <scstep>
   <time name="dav">    1.79    1.81</time>
   <time name="total">    2.17    2.19</time>
   <energy>
    <i name="alphaZ">    156.50993408 </i>
    <i name="ewald">  58206.79229783 </i>
    <i name="hartreedc"> -72314.29120315 </i>
    <i name="XCdc">   1369.72414642 </i>
    <i name="pawpsdc">  44018.89104708 </i>
    <i name="pawaedc"> -44054.23297039 </i>
    <i name="eentropy">     -0.00000000 </i>
    <i name="bandstr">  -4489.98497560 </i>
    <i name="atom">  16260.93880140 </i>
    <i name="e_fr_energy">   -845.65292233 </i>
    <i name="e_wo_entrp">   -845.65292233 </i>
    <i name="e_0_energy">   -845.65292233 </i>
   </energy>
  </scstep>
  <structure>
   <crystal>
    <varray name="basis" >
     <v>      17.59966831       0.00000000       0.00000000 </v>
     <v>      -8.79983416      15.24175986       0.00000000 </v>
     <v>       0.00000000       0.00000000      19.92151445 </v>
    </varray>
    <i name="volume">   5343.94461817 </i>
    <varray name="rec_basis" >
     <v>       0.05681925       0.03280461       0.00000000 </v>
     <v>       0.00000000       0.06560922       0.00000000 </v>
     <v>       0.00000000       0.00000000       0.05019699 </v>
    </varray>
   </crystal>
   <varray name="positions" >
    <v>       0.99943010       0.00005992       0.50000000 </v>
    <v>       0.14164706       0.99871895       0.50000000 </v>
    <v>       0.28492260       0.99841663       0.50000000 </v>
    <v>       0.42850047       0.99871895       0.50000000 </v>
    <v>       0.57205839       0.00005992       0.50000000 </v>
    <v>       0.71530655       0.00214292       0.50000000 </v>
    <v>       0.85826494       0.00214292       0.50000000 </v>
    <v>       0.00080792       0.14465083       0.50000000 </v>
    <v>       0.14259355       0.14244783       0.50000000 </v>
    <v>       0.28470221       0.14112972       0.50000000 </v>
    <v>       0.42785608       0.14112972       0.50000000 </v>
    <v>       0.57128286       0.14244783       0.50000000 </v>
    <v>       0.71470329       0.14408264       0.50000000 </v>
    <v>       0.85805263       0.14467669       0.50000000 </v>
    <v>       0.00095476       0.28713011       0.50000000 </v>
    <v>       0.14372552       0.28645370       0.50000000 </v>
    <v>       0.28540977       0.28469374       0.50000000 </v>
    <v>       0.42724431       0.28306005       0.50000000 </v>
    <v>       0.57071254       0.28469374       0.50000000 </v>
    <v>       0.71415674       0.28645370       0.50000000 </v>
    <v>       0.85760392       0.28713011       0.50000000 </v>
    <v>       0.00054479       0.42966101       0.50000000 </v>
    <v>       0.14422690       0.42957551       0.50000000 </v>
    <v>       0.28730213       0.42918005       0.50000000 </v>
    <v>       0.42797654       0.42569726       0.50000000 </v>
    <v>       0.56914930       0.42569726       0.50000000 </v>
    <v>       0.71330650       0.42918005       0.50000000 </v>
    <v>       0.85677719       0.42957551       0.50000000 </v>
    <v>       0.99928255       0.57181462       0.50000000 </v>
    <v>       0.14396064       0.57181462       0.50000000 </v>
    <v>       0.28862787       0.57181625       0.50000000 </v>
    <v>       0.43313209       0.57215564       0.50000000 </v>
    <v>       0.71045212       0.57215564       0.50000000 </v>
    <v>       0.85461695       0.57181625       0.50000000 </v>
    <v>       0.99707234       0.71370518       0.50000000 </v>
    <v>       0.14255519       0.71368182       0.50000000 </v>
    <v>       0.28806142       0.71370518       0.50000000 </v>
    <v>       0.43464191       0.71382540       0.50000000 </v>
    <v>       0.58510826       0.71626937       0.50000000 </v>
    <v>       0.70258968       0.71626937       0.50000000 </v>
    <v>       0.85061206       0.71382540       0.50000000 </v>
    <v>       0.99777175       0.85613493       0.50000000 </v>
    <v>       0.14160898       0.85591288       0.50000000 </v>
    <v>       0.28573247       0.85591288       0.50000000 </v>
    <v>       0.42979175       0.85613493       0.50000000 </v>
    <v>       0.57342541       0.85758690       0.50000000 </v>
    <v>       0.71640633       0.86138410       0.50000000 </v>
    <v>       0.85559006       0.85758690       0.50000000 </v>
    <v>       0.04754270       0.09547788       0.50000000 </v>
    <v>       0.18957833       0.09405657       0.50000000 </v>
    <v>       0.33254182       0.09365506       0.50000000 </v>
    <v>       0.47590681       0.09405657       0.50000000 </v>
    <v>       0.61936376       0.09547788       0.50000000 </v>
    <v>       0.76280004       0.09719274       0.50000000 </v>
    <v>       0.90582126       0.09719274       0.50000000 </v>
    <v>       0.04854983       0.23934281       0.50000000 </v>
    <v>       0.19048138       0.23782962       0.50000000 </v>
    <v>       0.33234878       0.23634667       0.50000000 </v>
    <v>       0.47542646       0.23634667       0.50000000 </v>
    <v>       0.61877681       0.23782962       0.50000000 </v>
    <v>       0.76222155       0.23934281       0.50000000 </v>
    <v>       0.90562797       0.23982737       0.50000000 </v>
    <v>       0.04871288       0.38232824       0.50000000 </v>
    <v>       0.19188940       0.38184213       0.50000000 </v>
    <v>       0.33352206       0.38013969       0.50000000 </v>
    <v>       0.47472270       0.37801683       0.50000000 </v>
    <v>       0.61804620       0.38013969       0.50000000 </v>
    <v>       0.76138130       0.38184213       0.50000000 </v>
    <v>       0.90504393       0.38232824       0.50000000 </v>
    <v>       0.04810654       0.52478452       0.50000000 </v>
    <v>       0.19263929       0.52476864       0.50000000 </v>
    <v>       0.33696521       0.52455433       0.50000000 </v>
    <v>       0.47833704       0.52146721       0.50000000 </v>
    <v>       0.61455874       0.52146721       0.50000000 </v>
    <v>       0.75901769       0.52455433       0.50000000 </v>
    <v>       0.90355792       0.52476864       0.50000000 </v>
    <v>       0.04642473       0.66685228       0.50000000 </v>
    <v>       0.19185612       0.66685228       0.50000000 </v>
    <v>       0.33777931       0.66688794       0.50000000 </v>
    <v>       0.48615700       0.66710760       0.50000000 </v>
    <v>       0.75237918       0.66710760       0.50000000 </v>
    <v>       0.90053720       0.66688794       0.50000000 </v>
    <v>       0.04582562       0.80879365       0.50000000 </v>
    <v>       0.19009580       0.80876303       0.50000000 </v>
    <v>       0.33439660       0.80879365       0.50000000 </v>
    <v>       0.47844872       0.80897069       0.50000000 </v>
    <v>       0.62209487       0.81129474       0.50000000 </v>
    <v>       0.76062845       0.81129474       0.50000000 </v>
    <v>       0.90195054       0.80897069       0.50000000 </v>
    <v>       0.04629157       0.95154386       0.50000000 </v>
    <v>       0.18948291       0.95113037       0.50000000 </v>
    <v>       0.33307603       0.95113037       0.50000000 </v>
    <v>       0.47668087       0.95154386       0.50000000 </v>
    <v>       0.62015751       0.95313740       0.50000000 </v>
    <v>       0.76355772       0.95568687       0.50000000 </v>
    <v>       0.90440847       0.95313740       0.50000000 </v>
    <v>       0.56830873       0.56518888       0.50000000 </v>
   </varray>
  </structure>
  <varray name="forces" >
   <v>      -0.05242647       0.01557202       0.00000000 </v>
   <v>      -0.02754664      -0.00675561       0.00000000 </v>
   <v>      -0.00297486      -0.01312176       0.00000000 </v>
   <v>       0.02060938      -0.00994395       0.00000000 </v>
   <v>       0.03946025      -0.02712314       0.00000000 </v>
   <v>      -0.03313066      -0.05076799      -0.00000000 </v>
   <v>       0.05968021      -0.04891770       0.00000000 </v>
   <v>       0.23488428      -0.46080505       0.00000000 </v>
   <v>      -0.05767401      -0.05642539       0.00000000 </v>
   <v>      -0.01304742      -0.03933735       0.00000000 </v>
   <v>       0.00570437      -0.03488987       0.00000000 </v>
   <v>       0.02594405      -0.02634319      -0.00000000 </v>
   <v>       0.00538376      -0.02994500       0.00000000 </v>
   <v>      -0.01388687      -0.06299148       0.00000000 </v>
   <v>      -0.03829495       0.00401492       0.00000000 </v>
   <v>       0.04742139      -0.03425892       0.00000000 </v>
   <v>      -0.03001779      -0.00367143       0.00000000 </v>
   <v>      -0.00133710      -0.09522975       0.00000000 </v>
   <v>       0.02930059      -0.00305648      -0.00000000 </v>
   <v>      -0.00716087      -0.04405833       0.00000000 </v>
   <v>       0.00270295      -0.02666498       0.00000000 </v>
   <v>      -0.00518981       0.01095659       0.00000000 </v>
   <v>      -0.02476504       0.00542816       0.00000000 </v>
   <v>       0.06504741      -0.13678843       0.00000000 </v>
   <v>      -0.11015837      -0.19962364       0.00000000 </v>
   <v>       0.11167436      -0.20000412       0.00000000 </v>
   <v>      -0.05863708      -0.13747020       0.00000000 </v>
   <v>       0.02240162       0.00091590       0.00000000 </v>
   <v>       0.01494893       0.03137694      -0.00000000 </v>
   <v>      -0.01817979       0.03185064       0.00000000 </v>
   <v>      -0.08378945       0.13057677      -0.00000000 </v>
   <v>       0.05266966       0.39774614       0.00000000 </v>
   <v>      -0.05063946       0.39838770       0.00000000 </v>
   <v>       0.08439661       0.13032313       0.00000000 </v>
   <v>      -0.00952928       0.02530953       0.00000000 </v>
   <v>      -0.00124193       0.02997380       0.00000000 </v>
   <v>       0.00824928       0.02399883       0.00000000 </v>
   <v>       0.08741271       0.04397438       0.00000000 </v>
   <v>       1.36513041       1.25140413       0.00000000 </v>
   <v>      -1.36403098       1.25232533       0.00000000 </v>
   <v>      -0.08662012       0.04653523       0.00000000 </v>
   <v>      -0.04713435      -0.00145212       0.00000000 </v>
   <v>      -0.01460061      -0.00173988      -0.00000000 </v>
   <v>       0.01150426      -0.00332067      -0.00000000 </v>
   <v>       0.04648173      -0.00740648       0.00000000 </v>
   <v>       0.15165408       0.03599016       0.00000000 </v>
   <v>       0.00283690      -0.25351453       0.00000000 </v>
   <v>      -0.15019479       0.04260286       0.00000000 </v>
   <v>      -0.10753415       0.15892728       0.00000000 </v>
   <v>       0.02417041       0.02475557      -0.00000000 </v>
   <v>       0.00331898       0.02836246      -0.00000000 </v>
   <v>      -0.00916129       0.02376376       0.00000000 </v>
   <v>      -0.02586711       0.03318832       0.00000000 </v>
   <v>      -0.01620260       0.03157609       0.00000000 </v>
   <v>      -0.02850002       0.09676508      -0.00000000 </v>
   <v>      -0.02383820       0.22787134       0.00000000 </v>
   <v>      -0.01948509       0.02250932       0.00000000 </v>
   <v>       0.01610495       0.03971729       0.00000000 </v>
   <v>      -0.01458581       0.03689538      -0.00000000 </v>
   <v>       0.01005879       0.00399716       0.00000000 </v>
   <v>      -0.01288410       0.03694609      -0.00000000 </v>
   <v>       0.01317324       0.03604963       0.00000000 </v>
   <v>       0.01353701       0.01664694       0.00000000 </v>
   <v>       0.03969916       0.04879073       0.00000000 </v>
   <v>      -0.02527069      -0.19823193       0.00000000 </v>
   <v>      -0.00050642       0.11146530      -0.00000000 </v>
   <v>       0.02238469      -0.19969535      -0.00000000 </v>
   <v>      -0.04610444       0.05908553       0.00000000 </v>
   <v>      -0.00717422       0.02423461       0.00000000 </v>
   <v>       0.00188899       0.00560676       0.00000000 </v>
   <v>       0.02552267      -0.01196932       0.00000000 </v>
   <v>       0.18768621       0.11026557       0.00000000 </v>
   <v>       1.02169183      -1.56407653      -0.00000000 </v>
   <v>      -1.02375722      -1.56378264       0.00000000 </v>
   <v>      -0.18964084       0.11137062       0.00000000 </v>
   <v>      -0.02407220      -0.00911372      -0.00000000 </v>
   <v>       0.01125176      -0.03569459      -0.00000000 </v>
   <v>      -0.00889708      -0.03576595      -0.00000000 </v>
   <v>      -0.05932059      -0.06855203       0.00000000 </v>
   <v>      -0.27167175       0.00826846       0.00000000 </v>
   <v>       0.26995873       0.00725164       0.00000000 </v>
   <v>       0.05974516      -0.06897849       0.00000000 </v>
   <v>       0.03824975      -0.01636800       0.00000000 </v>
   <v>       0.00183636      -0.01330273       0.00000000 </v>
   <v>      -0.03551502      -0.01438646      -0.00000000 </v>
   <v>      -0.08553052      -0.01416543      -0.00000000 </v>
   <v>      -0.88760743       0.24383420      -0.00000000 </v>
   <v>       0.88318549       0.24133535      -0.00000000 </v>
   <v>       0.08483282      -0.01786431       0.00000000 </v>
   <v>       0.03861305       0.01004902       0.00000000 </v>
   <v>       0.01421617      -0.00590037      -0.00000000 </v>
   <v>      -0.00801203      -0.00435400       0.00000000 </v>
   <v>      -0.03102691       0.01691775       0.00000000 </v>
   <v>      -0.11082117       0.11949167       0.00000000 </v>
   <v>      -0.00197609       0.02181002      -0.00000000 </v>
   <v>       0.09947723       0.11000169       0.00000000 </v>
   <v>       0.00106905      -0.11918453      -0.00000000 </v>
  </varray>
  <varray name="stress" >
   <v>     -10.63238526       0.01697874       0.00000000 </v>
   <v>       0.01697874       3.06718166       0.00000000 </v>
   <v>       0.00000000       0.00000000      -0.42556479 </v>
  </varray>
  <energy>
   <i name="e_fr_energy">   -845.65292233 </i>
   <i name="e_wo_entrp">   -845.65292233 </i>
   <i name="e_0_energy">     -0.00000000 </i>
  </energy>
  <time name="totalsc">  104.17  106.33</time>
  <eigenvalues>
   <array>
    <dimension dim="1">band</dimension>
    <dimension dim="2">kpoint</dimension>
    <dimension dim="3">spin</dimension>
    <field>eigene</field>
    <field>occ</field>
    <set>
     <set comment="spin 1">
      <set comment="kpoint 1">
       <r>  -22.5413    1.0000 </r>
       <r>  -22.0204    1.0000 </r>
       <r>  -21.7751    1.0000 </r>
       <r>  -21.7456    1.0000 </r>
       <r>  -21.6975    1.0000 </r>
       <r>  -21.6512    1.0000 </r>
       <r>  -21.6163    1.0000 </r>
       <r>  -21.2382    1.0000 </r>
       <r>  -21.0720    1.0000 </r>
       <r>  -21.0048    1.0000 </r>
       <r>  -20.9685    1.0000 </r>
       <r>  -20.9259    1.0000 </r>
       <r>  -20.8767    1.0000 </r>
       <r>  -20.7412    1.0000 </r>
       <r>  -20.7007    1.0000 </r>
       <r>  -20.6642    1.0000 </r>
       <r>  -20.5956    1.0000 </r>
       <r>  -20.5702    1.0000 </r>
       <r>  -20.4284    1.0000 </r>
       <r>  -19.9822    1.0000 </r>
       <r>  -19.9234    1.0000 </r>
       <r>  -19.8068    1.0000 </r>
       <r>  -19.7625    1.0000 </r>
       <r>  -19.7363    1.0000 </r>
       <r>  -19.7346    1.0000 </r>
       <r>  -19.7077    1.0000 </r>
       <r>  -19.6997    1.0000 </r>
       <r>  -19.6432    1.0000 </r>
       <r>  -19.6399    1.0000 </r>
       <r>  -19.6259    1.0000 </r>
       <r>  -19.4922    1.0000 </r>
       <r>  -19.4081    1.0000 </r>
       <r>  -19.3645    1.0000 </r>
       <r>  -19.3607    1.0000 </r>
       <r>  -19.2890    1.0000 </r>
       <r>  -19.2359    1.0000 </r>
       <r>  -19.1084    1.0000 </r>
       <r>  -19.0002    1.0000 </r>
       <r>  -18.9357    1.0000 </r>
       <r>  -18.8745    1.0000 </r>
       <r>  -18.8526    1.0000 </r>
       <r>  -18.8332    1.0000 </r>
       <r>  -18.7676    1.0000 </r>
       <r>  -18.7547    1.0000 </r>
       <r>  -18.7267    1.0000 </r>
       <r>  -18.7129    1.0000 </r>
       <r>  -18.6899    1.0000 </r>
       <r>  -18.4435    1.0000 </r>
       <r>  -14.1413    1.0000 </r>
       <r>  -13.1815    1.0000 </r>
       <r>  -13.1575    1.0000 </r>
       <r>  -13.1092    1.0000 </r>
       <r>  -13.1046    1.0000 </r>
       <r>  -13.0832    1.0000 </r>
       <r>  -13.0164    1.0000 </r>
       <r>  -12.9583    1.0000 </r>
       <r>  -12.9475    1.0000 </r>
       <r>  -12.9377    1.0000 </r>
       <r>  -12.8033    1.0000 </r>
       <r>  -12.7672    1.0000 </r>
       <r>  -12.6013    1.0000 </r>
       <r>  -12.5072    1.0000 </r>
       <r>  -12.4854    1.0000 </r>
       <r>  -12.3769    1.0000 </r>
       <r>  -12.3094    1.0000 </r>
       <r>  -12.2974    1.0000 </r>
       <r>  -12.1755    1.0000 </r>
       <r>  -11.9022    1.0000 </r>
       <r>  -11.8853    1.0000 </r>
       <r>  -11.7648    1.0000 </r>
       <r>  -11.7636    1.0000 </r>
       <r>  -11.7522    1.0000 </r>
       <r>  -11.7424    1.0000 </r>
       <r>  -11.6963    1.0000 </r>
       <r>  -11.6544    1.0000 </r>
       <r>  -11.6305    1.0000 </r>
       <r>  -11.5407    1.0000 </r>
       <r>  -11.4216    1.0000 </r>
       <r>  -11.2000    1.0000 </r>
       <r>  -11.1254    1.0000 </r>
       <r>  -11.0825    1.0000 </r>
       <r>  -11.0576    1.0000 </r>
       <r>  -10.9691    1.0000 </r>
       <r>  -10.9129    1.0000 </r>
       <r>  -10.6837    1.0000 </r>
       <r>  -10.4626    1.0000 </r>
       <r>  -10.4307    1.0000 </r>
       <r>  -10.3519    1.0000 </r>
       <r>  -10.2540    1.0000 </r>
       <r>  -10.2050    1.0000 </r>
       <r>   -9.8903    1.0000 </r>
       <r>   -9.7704    1.0000 </r>
       <r>   -9.7625    1.0000 </r>
       <r>   -9.7249    1.0000 </r>
       <r>   -9.6762    1.0000 </r>
       <r>   -9.5867    1.0000 </r>
       <r>   -9.5433    1.0000 </r>
       <r>   -9.4992    1.0000 </r>
       <r>   -9.4624    1.0000 </r>
       <r>   -9.3522    1.0000 </r>
       <r>   -9.3476    1.0000 </r>
       <r>   -9.2873    1.0000 </r>
       <r>   -9.2626    1.0000 </r>
       <r>   -9.2581    1.0000 </r>
       <r>   -9.2506    1.0000 </r>
       <r>   -9.2344    1.0000 </r>
       <r>   -9.2251    1.0000 </r>
       <r>   -9.2249    1.0000 </r>
       <r>   -9.2067    1.0000 </r>
       <r>   -9.2032    1.0000 </r>
       <r>   -9.2001    1.0000 </r>
       <r>   -9.1968    1.0000 </r>
       <r>   -9.1561    1.0000 </r>
       <r>   -9.1323    1.0000 </r>
       <r>   -9.1085    1.0000 </r>
       <r>   -9.1083    1.0000 </r>
       <r>   -9.1012    1.0000 </r>
       <r>   -9.0460    1.0000 </r>
       <r>   -8.9928    1.0000 </r>
       <r>   -8.8470    1.0000 </r>
       <r>   -8.7966    1.0000 </r>
       <r>   -8.6564    1.0000 </r>
       <r>   -8.5032    1.0000 </r>
       <r>   -8.4822    1.0000 </r>
       <r>   -8.4422    1.0000 </r>
       <r>   -8.3290    1.0000 </r>
       <r>   -8.2241    1.0000 </r>
       <r>   -8.1999    1.0000 </r>
       <r>   -8.1980    1.0000 </r>
       <r>   -8.1702    1.0000 </r>
       <r>   -8.1475    1.0000 </r>
       <r>   -8.1229    1.0000 </r>
       <r>   -8.0384    1.0000 </r>
       <r>   -7.9690    1.0000 </r>
       <r>   -7.9508    1.0000 </r>
       <r>   -7.8718    1.0000 </r>
       <r>   -7.8526    1.0000 </r>
       <r>   -7.8470    1.0000 </r>
       <r>   -7.8067    1.0000 </r>
       <r>   -7.7985    1.0000 </r>
       <r>   -7.7954    1.0000 </r>
       <r>   -7.7357    1.0000 </r>
       <r>   -7.7343    1.0000 </r>
       <r>   -7.7121    1.0000 </r>
       <r>   -7.6789    1.0000 </r>
       <r>   -7.6732    1.0000 </r>
       <r>   -7.6620    1.0000 </r>
       <r>   -7.6398    1.0000 </r>
       <r>   -7.6323    1.0000 </r>
       <r>   -7.4420    1.0000 </r>
       <r>   -7.4366    1.0000 </r>
       <r>   -7.4263    1.0000 </r>
       <r>   -7.3818    1.0000 </r>
       <r>   -7.3579    1.0000 </r>
       <r>   -7.2764    1.0000 </r>
       <r>   -6.8282    1.0000 </r>
       <r>   -6.7569    1.0000 </r>
       <r>   -6.6233    1.0000 </r>
       <r>   -6.6052    1.0000 </r>
       <r>   -6.5448    1.0000 </r>
       <r>   -6.5403    1.0000 </r>
       <r>   -6.5042    1.0000 </r>
       <r>   -6.4910    1.0000 </r>
       <r>   -6.4558    1.0000 </r>
       <r>   -6.4558    1.0000 </r>
       <r>   -6.4399    1.0000 </r>
       <r>   -6.4391    1.0000 </r>
       <r>   -6.4108    1.0000 </r>
       <r>   -6.4057    1.0000 </r>
       <r>   -6.3595    1.0000 </r>
       <r>   -6.3409    1.0000 </r>
       <r>   -6.3189    1.0000 </r>
       <r>   -6.1103    1.0000 </r>
       <r>   -5.9657    1.0000 </r>
       <r>   -5.9278    1.0000 </r>
       <r>   -5.8862    1.0000 </r>
       <r>   -5.8800    1.0000 </r>
       <r>   -5.8650    1.0000 </r>
       <r>   -5.7812    1.0000 </r>
       <r>   -5.7760    1.0000 </r>
       <r>   -5.5283    1.0000 </r>
       <r>   -5.2210    1.0000 </r>
       <r>   -5.1990    1.0000 </r>
       <r>   -5.1970    1.0000 </r>
       <r>   -5.1413    1.0000 </r>
       <r>   -5.1327    1.0000 </r>
       <r>   -5.1019    1.0000 </r>
       <r>   -5.0004    1.0000 </r>
       <r>   -4.9443    1.0000 </r>
       <r>   -4.9184    1.0000 </r>
       <r>   -4.9050    1.0000 </r>
       <r>   -4.8992    1.0000 </r>
       <r>   -4.7304    1.0000 </r>
       <r>   -1.3154    1.0000 </r>
       <r>   -1.2026    0.0000 </r>
       <r>    0.0592    0.0000 </r>
       <r>    0.2047    0.0000 </r>
       <r>    0.2386    0.0000 </r>
       <r>    0.2595    0.0000 </r>
       <r>    0.2609    0.0000 </r>
       <r>    0.3042    0.0000 </r>
       <r>    0.3052    0.0000 </r>
       <r>    0.3770    0.0000 </r>
       <r>    0.3946    0.0000 </r>
       <r>    0.4306    0.0000 </r>
       <r>    0.4812    0.0000 </r>
       <r>    0.5282    0.0000 </r>
       <r>    0.6099    0.0000 </r>
       <r>    0.7474    0.0000 </r>
       <r>    0.7482    0.0000 </r>
       <r>    0.7742    0.0000 </r>
       <r>    0.8051    0.0000 </r>
       <r>    0.8117    0.0000 </r>
       <r>    0.8299    0.0000 </r>
       <r>    0.8379    0.0000 </r>
       <r>    0.8601    0.0000 </r>
       <r>    0.8709    0.0000 </r>
       <r>    0.9818    0.0000 </r>
       <r>    1.0200    0.0000 </r>
       <r>    1.0599    0.0000 </r>
       <r>    1.1187    0.0000 </r>
       <r>    1.4953    0.0000 </r>
       <r>    1.6729    0.0000 </r>
       <r>    1.6964    0.0000 </r>
       <r>    1.7065    0.0000 </r>
       <r>    1.7229    0.0000 </r>
       <r>    1.7408    0.0000 </r>
       <r>    1.7443    0.0000 </r>
       <r>    1.8036    0.0000 </r>
       <r>    1.8075    0.0000 </r>
       <r>    1.8456    0.0000 </r>
       <r>    1.8483    0.0000 </r>
       <r>    1.8789    0.0000 </r>
       <r>    1.8820    0.0000 </r>
       <r>    1.9059    0.0000 </r>
       <r>    1.9075    0.0000 </r>
       <r>    1.9281    0.0000 </r>
       <r>    1.9851    0.0000 </r>
       <r>    2.0299    0.0000 </r>
       <r>    2.1057    0.0000 </r>
       <r>    2.1078    0.0000 </r>
       <r>    2.1285    0.0000 </r>
       <r>    2.1346    0.0000 </r>
       <r>    2.1403    0.0000 </r>
      </set>
     </set>
    </set>
   </array>
  </eigenvalues>
  <separator name="orbital magnetization" >
   <v name="MAGDIPOLOUT">      0.00000000      0.00000000      0.00000000</v>
  </separator>
  <dos>
   <i name="efermi">     -1.25240037 </i>
   <total>
    <array>
     <dimension dim="1">gridpoints</dimension>
     <dimension dim="2">spin</dimension>
     <field>energy</field>
     <field>total</field>
     <field>integrated</field>
     <set>
      <set comment="spin 1">
       <r>   -23.7754     0.0000     0.0000 </r>
       <r>   -23.6849     0.0000     0.0000 </r>
       <r>   -23.5944     0.0000     0.0000 </r>
       <r>   -23.5039     0.0000     0.0000 </r>
       <r>   -23.4134     0.0000     0.0000 </r>
       <r>   -23.3229     0.0000     0.0000 </r>
       <r>   -23.2324     0.0000     0.0000 </r>
       <r>   -23.1419     0.0000     0.0000 </r>
       <r>   -23.0514     0.0000     0.0000 </r>
       <r>   -22.9609     0.0000     0.0000 </r>
       <r>   -22.8704     0.0000     0.0000 </r>
       <r>   -22.7799     0.0000     0.0000 </r>
       <r>   -22.6894     0.0000     0.0000 </r>
       <r>   -22.5989     0.0000     0.0000 </r>
       <r>   -22.5084    22.0996     2.0000 </r>
       <r>   -22.4179     0.0000     2.0000 </r>
       <r>   -22.3274     0.0000     2.0000 </r>
       <r>   -22.2369     0.0000     2.0000 </r>
       <r>   -22.1464     0.0000     2.0000 </r>
       <r>   -22.0559     0.0000     2.0000 </r>
       <r>   -21.9654    22.0997     4.0000 </r>
       <r>   -21.8749     0.0000     4.0000 </r>
       <r>   -21.7844     2.0806     4.1883 </r>
       <r>   -21.6939    37.4184     9.3863 </r>
       <r>   -21.6034    43.4501    13.9322 </r>
       <r>   -21.5129     0.0000    14.0000 </r>
       <r>   -21.4224     0.0000    14.0000 </r>
       <r>   -21.3319     0.0000    14.0000 </r>
       <r>   -21.2414     7.1556    14.6476 </r>
       <r>   -21.1509     0.0000    16.0000 </r>
       <r>   -21.0604    20.9800    17.8987 </r>
       <r>   -20.9699    31.4728    20.8483 </r>
       <r>   -20.8794    29.8789    24.7040 </r>
       <r>   -20.7889     0.0000    26.0000 </r>
       <r>   -20.6984    35.9325    29.2519 </r>
       <r>   -20.6079    23.0193    32.0832 </r>
       <r>   -20.5174    43.2797    36.0000 </r>
       <r>   -20.4269    12.9352    37.1706 </r>
       <r>   -20.3364     0.0000    38.0000 </r>
       <r>   -20.2459     0.0000    38.0000 </r>
       <r>   -20.1554     0.0000    38.0000 </r>
       <r>   -20.0649     0.0000    38.0000 </r>
       <r>   -19.9744    19.0953    39.7281 </r>
       <r>   -19.8839    22.0997    42.0000 </r>
       <r>   -19.7934    21.4591    43.9420 </r>
       <r>   -19.7029    90.0816    52.1523 </r>
       <r>   -19.6124    65.6765    59.9437 </r>
       <r>   -19.5219     0.0003    60.0000 </r>
       <r>   -19.4314    22.1104    62.0010 </r>
       <r>   -19.3409    66.2224    67.9941 </r>
       <r>   -19.2504    22.5409    70.0399 </r>
       <r>   -19.1599    21.6584    72.0000 </r>
       <r>   -19.0694    22.0997    74.0000 </r>
       <r>   -18.9789    22.0715    75.9975 </r>
       <r>   -18.8884    22.6356    78.0485 </r>
       <r>   -18.7979    65.7632    84.0000 </r>
       <r>   -18.7074    83.5973    91.5655 </r>
       <r>   -18.6169    21.9525    94.0000 </r>
       <r>   -18.5264     0.0000    94.0000 </r>
       <r>   -18.4359    18.9322    95.7133 </r>
       <r>   -18.3454     0.0000    96.0000 </r>
       <r>   -18.2549     0.0000    96.0000 </r>
       <r>   -18.1644     0.0000    96.0000 </r>
       <r>   -18.0739     0.0000    96.0000 </r>
       <r>   -17.9834     0.0000    96.0000 </r>
       <r>   -17.8929     0.0000    96.0000 </r>
       <r>   -17.8024     0.0000    96.0000 </r>
       <r>   -17.7119     0.0000    96.0000 </r>
       <r>   -17.6214     0.0000    96.0000 </r>
       <r>   -17.5309     0.0000    96.0000 </r>
       <r>   -17.4404     0.0000    96.0000 </r>
       <r>   -17.3499     0.0000    96.0000 </r>
       <r>   -17.2594     0.0000    96.0000 </r>
       <r>   -17.1689     0.0000    96.0000 </r>
       <r>   -17.0784     0.0000    96.0000 </r>
       <r>   -16.9879     0.0000    96.0000 </r>
       <r>   -16.8974     0.0000    96.0000 </r>
       <r>   -16.8069     0.0000    96.0000 </r>
       <r>   -16.7164     0.0000    96.0000 </r>
       <r>   -16.6259     0.0000    96.0000 </r>
       <r>   -16.5354     0.0000    96.0000 </r>
       <r>   -16.4449     0.0000    96.0000 </r>
       <r>   -16.3544     0.0000    96.0000 </r>
       <r>   -16.2639     0.0000    96.0000 </r>
       <r>   -16.1734     0.0000    96.0000 </r>
       <r>   -16.0829     0.0000    96.0000 </r>
       <r>   -15.9924     0.0000    96.0000 </r>
       <r>   -15.9019     0.0000    96.0000 </r>
       <r>   -15.8114     0.0000    96.0000 </r>
       <r>   -15.7209     0.0000    96.0000 </r>
       <r>   -15.6304     0.0000    96.0000 </r>
       <r>   -15.5399     0.0000    96.0000 </r>
       <r>   -15.4494     0.0000    96.0000 </r>
       <r>   -15.3589     0.0000    96.0000 </r>
       <r>   -15.2684     0.0000    96.0000 </r>
       <r>   -15.1779     0.0000    96.0000 </r>
       <r>   -15.0875     0.0000    96.0000 </r>
       <r>   -14.9970     0.0000    96.0000 </r>
       <r>   -14.9065     0.0000    96.0000 </r>
       <r>   -14.8160     0.0000    96.0000 </r>
       <r>   -14.7255     0.0000    96.0000 </r>
       <r>   -14.6350     0.0000    96.0000 </r>
       <r>   -14.5445     0.0000    96.0000 </r>
       <r>   -14.4540     0.0000    96.0000 </r>
       <r>   -14.3635     0.0000    96.0000 </r>
       <r>   -14.2730     0.0000    96.0000 </r>
       <r>   -14.1825     0.0000    96.0000 </r>
       <r>   -14.0920    22.0997    98.0000 </r>
       <r>   -14.0015     0.0000    98.0000 </r>
       <r>   -13.9110     0.0000    98.0000 </r>
       <r>   -13.8205     0.0000    98.0000 </r>
       <r>   -13.7300     0.0000    98.0000 </r>
       <r>   -13.6395     0.0000    98.0000 </r>
       <r>   -13.5490     0.0000    98.0000 </r>
       <r>   -13.4585     0.0000    98.0000 </r>
       <r>   -13.3680     0.0000    98.0000 </r>
       <r>   -13.2775     0.0000    98.0000 </r>
       <r>   -13.1870     4.8263    98.4368 </r>
       <r>   -13.0965    63.4357   105.7409 </r>
       <r>   -13.0060    41.9895   109.8610 </r>
       <r>   -12.9155    66.2804   115.9983 </r>
       <r>   -12.8250     0.0244   116.0022 </r>
       <r>   -12.7345    44.1749   120.0000 </r>
       <r>   -12.6440     0.0000   120.0000 </r>
       <r>   -12.5535    22.0997   122.0000 </r>
       <r>   -12.4630    44.1827   125.9985 </r>
       <r>   -12.3725    16.2014   127.4662 </r>
       <r>   -12.2820    43.8812   131.9712 </r>
       <r>   -12.1915     0.2669   132.0242 </r>
       <r>   -12.1010    21.8327   134.0000 </r>
       <r>   -12.0105     0.0000   134.0000 </r>
       <r>   -11.9200     0.1318   134.0119 </r>
       <r>   -11.8295    44.0675   138.0000 </r>
       <r>   -11.7390    80.7080   145.3040 </r>
       <r>   -11.6485    39.8985   149.6108 </r>
       <r>   -11.5580    22.1383   152.0145 </r>
       <r>   -11.4675    21.9395   154.0000 </r>
       <r>   -11.3770    22.0997   156.0000 </r>
       <r>   -11.2865     0.0000   156.0000 </r>
       <r>   -11.1960    15.7805   157.4281 </r>
       <r>   -11.1055    22.0578   159.9962 </r>
       <r>   -11.0150    44.1867   164.0000 </r>
       <r>   -10.9245    23.2237   166.1017 </r>
       <r>   -10.8340    20.9756   168.0000 </r>
       <r>   -10.7435     0.0000   168.0000 </r>
       <r>   -10.6530    22.0995   170.0000 </r>
       <r>   -10.5625     0.0000   170.0000 </r>
       <r>   -10.4720     2.0264   170.1834 </r>
       <r>   -10.3815    22.1000   174.0000 </r>
       <r>   -10.2910    22.0994   176.0000 </r>
       <r>   -10.2005    38.4150   179.4765 </r>
       <r>   -10.1100     0.0000   180.0000 </r>
       <r>   -10.0195     0.0000   180.0000 </r>
       <r>    -9.9290     0.0000   180.0000 </r>
       <r>    -9.8385    22.0997   182.0000 </r>
       <r>    -9.7480    43.7535   185.9597 </r>
       <r>    -9.6575    44.0974   189.9919 </r>
       <r>    -9.5670    22.0489   191.9954 </r>
       <r>    -9.4765    44.6907   196.0453 </r>
       <r>    -9.3860    21.5852   198.0000 </r>
       <r>    -9.2955    46.9069   202.2450 </r>
       <r>    -9.2050   162.4866   218.7049 </r>
       <r>    -9.1145    53.3286   228.8262 </r>
       <r>    -9.0240    43.5153   235.9981 </r>
       <r>    -8.9335    22.0996   238.0000 </r>
       <r>    -8.8430    15.7799   239.4281 </r>
       <r>    -8.7525    22.0997   242.0000 </r>
       <r>    -8.6620     4.7064   242.4259 </r>
       <r>    -8.5715     0.0000   244.0000 </r>
       <r>    -8.4810    34.6458   247.1354 </r>
       <r>    -8.3905    22.0997   250.0000 </r>
       <r>    -8.3000    22.0992   252.0000 </r>
       <r>    -8.2095    24.7604   254.2408 </r>
       <r>    -8.1190    80.7825   263.4148 </r>
       <r>    -8.0285    20.2828   265.8356 </r>
       <r>    -7.9380    43.4142   269.9289 </r>
       <r>    -7.8475    49.3232   274.4637 </r>
       <r>    -7.7570    66.3421   282.0039 </r>
       <r>    -7.6665   111.4855   292.0932 </r>
       <r>    -7.5760    44.1976   298.0000 </r>
       <r>    -7.4855     0.0000   298.0000 </r>
       <r>    -7.3950    66.9696   304.0607 </r>
       <r>    -7.3045    43.5294   308.0001 </r>
       <r>    -7.2140    22.0989   310.0000 </r>
       <r>    -7.1235     0.0000   310.0000 </r>
       <r>    -7.0330     0.0000   310.0000 </r>
       <r>    -6.9425     0.0000   310.0000 </r>
       <r>    -6.8520     0.0085   310.0008 </r>
       <r>    -6.7615    27.7586   312.5129 </r>
       <r>    -6.6710     0.0000   314.0000 </r>
       <r>    -6.5805    44.1940   317.9995 </r>
       <r>    -6.4900    78.0055   325.0594 </r>
       <r>    -6.3995   127.1245   337.5047 </r>
       <r>    -6.3090    64.5069   343.8378 </r>
       <r>    -6.2185     0.0000   344.0000 </r>
       <r>    -6.1280     0.1358   344.0123 </r>
       <r>    -6.0375    21.9638   346.0000 </r>
       <r>    -5.9470    22.0796   347.9982 </r>
       <r>    -5.8565    85.7275   355.7648 </r>
       <r>    -5.7660    42.0686   359.8072 </r>
       <r>    -5.6755     0.0000   360.0000 </r>
       <r>    -5.5850     0.0000   360.0000 </r>
       <r>    -5.4945    22.0996   362.0000 </r>
       <r>    -5.4040     0.0000   362.0000 </r>
       <r>    -5.3135     0.0000   362.0000 </r>
       <r>    -5.2230     8.5599   362.7747 </r>
       <r>    -5.1325    75.1521   370.8021 </r>
       <r>    -5.0421    22.0995   374.0000 </r>
       <r>    -4.9516    25.4439   376.3026 </r>
       <r>    -4.8611    66.2990   384.0000 </r>
       <r>    -4.7706     0.0000   384.0000 </r>
       <r>    -4.6801    22.0997   386.0000 </r>
       <r>    -4.5896     0.0000   386.0000 </r>
       <r>    -4.4991     0.0000   386.0000 </r>
       <r>    -4.4086     0.0000   386.0000 </r>
       <r>    -4.3181     0.0000   386.0000 </r>
       <r>    -4.2276     0.0000   386.0000 </r>
       <r>    -4.1371     0.0000   386.0000 </r>
       <r>    -4.0466     0.0000   386.0000 </r>
       <r>    -3.9561     0.0000   386.0000 </r>
       <r>    -3.8656     0.0000   386.0000 </r>
       <r>    -3.7751     0.0000   386.0000 </r>
       <r>    -3.6846     0.0000   386.0000 </r>
       <r>    -3.5941     0.0000   386.0000 </r>
       <r>    -3.5036     0.0000   386.0000 </r>
       <r>    -3.4131     0.0000   386.0000 </r>
       <r>    -3.3226     0.0000   386.0000 </r>
       <r>    -3.2321     0.0000   386.0000 </r>
       <r>    -3.1416     0.0000   386.0000 </r>
       <r>    -3.0511     0.0000   386.0000 </r>
       <r>    -2.9606     0.0000   386.0000 </r>
       <r>    -2.8701     0.0000   386.0000 </r>
       <r>    -2.7796     0.0000   386.0000 </r>
       <r>    -2.6891     0.0000   386.0000 </r>
       <r>    -2.5986     0.0000   386.0000 </r>
       <r>    -2.5081     0.0000   386.0000 </r>
       <r>    -2.4176     0.0000   386.0000 </r>
       <r>    -2.3271     0.0000   386.0000 </r>
       <r>    -2.2366     0.0000   386.0000 </r>
       <r>    -2.1461     0.0000   386.0000 </r>
       <r>    -2.0556     0.0000   386.0000 </r>
       <r>    -1.9651     0.0000   386.0000 </r>
       <r>    -1.8746     0.0000   386.0000 </r>
       <r>    -1.7841     0.0000   386.0000 </r>
       <r>    -1.6936     0.0000   386.0000 </r>
       <r>    -1.6031     0.0000   386.0000 </r>
       <r>    -1.5126     0.0000   386.0000 </r>
       <r>    -1.4221     0.0000   386.0000 </r>
       <r>    -1.3316     0.2469   386.0223 </r>
       <r>    -1.2411    21.8528   388.0000 </r>
       <r>    -1.1506    22.0997   390.0000 </r>
       <r>    -1.0601     0.0000   390.0000 </r>
       <r>    -0.9696     0.0000   390.0000 </r>
       <r>    -0.8791     0.0000   390.0000 </r>
       <r>    -0.7886     0.0000   390.0000 </r>
       <r>    -0.6981     0.0000   390.0000 </r>
       <r>    -0.6076     0.0000   390.0000 </r>
       <r>    -0.5171     0.0000   390.0000 </r>
       <r>    -0.4266     0.0000   390.0000 </r>
       <r>    -0.3361     0.0000   390.0000 </r>
       <r>    -0.2456     0.0000   390.0000 </r>
       <r>    -0.1551     0.0000   390.0000 </r>
       <r>    -0.0646     0.0000   390.0000 </r>
       <r>     0.0259     0.0000   390.0000 </r>
       <r>     0.1164    22.0996   392.0000 </r>
       <r>     0.2069    13.6913   393.2391 </r>
       <r>     0.2974    72.9422   400.6012 </r>
       <r>     0.3879    24.5690   406.2235 </r>
       <r>     0.4784    29.7615   410.6934 </r>
       <r>     0.5689    22.0997   414.0000 </r>
       <r>     0.6594    22.0997   416.0000 </r>
       <r>     0.7499    27.1328   418.4555 </r>
       <r>     0.8404   100.9985   429.1409 </r>
       <r>     0.9309    44.1398   434.0000 </r>
       <r>     1.0214    34.8739   437.1561 </r>
       <r>     1.1119    25.8399   440.3385 </r>
       <r>     1.2024     0.0000   442.0000 </r>
       <r>     1.2929     0.0000   442.0000 </r>
       <r>     1.3834     0.0000   442.0000 </r>
       <r>     1.4739     0.0272   442.0025 </r>
       <r>     1.5644    22.0725   444.0000 </r>
       <r>     1.6549     0.1206   444.0109 </r>
       <r>     1.7454   116.9847   454.5979 </r>
       <r>     1.8359    46.9471   460.2487 </r>
       <r>     1.9264   118.4154   472.7945 </r>
       <r>     2.0169    22.8331   476.0664 </r>
       <r>     2.1074    44.9906   480.1380 </r>
       <r>     2.1979    66.2660   488.0000 </r>
       <r>     2.2884     0.0000   488.0000 </r>
       <r>     2.3789     0.0000   488.0000 </r>
       <r>     2.4694     0.0000   488.0000 </r>
       <r>     2.5599     0.0000   488.0000 </r>
       <r>     2.6504     0.0000   488.0000 </r>
       <r>     2.7409     0.0000   488.0000 </r>
       <r>     2.8314     0.0000   488.0000 </r>
       <r>     2.9219     0.0000   488.0000 </r>
       <r>     3.0124     0.0000   488.0000 </r>
       <r>     3.1029     0.0000   488.0000 </r>
       <r>     3.1934     0.0000   488.0000 </r>
       <r>     3.2839     0.0000   488.0000 </r>
       <r>     3.3744     0.0000   488.0000 </r>
      </set>
     </set>
    </array>
   </total>
  </dos>
 </calculation>
 <structure name="finalpos" >
  <crystal>
   <varray name="basis" >
    <v>      17.59966831       0.00000000       0.00000000 </v>
    <v>      -8.79983416      15.24175986       0.00000000 </v>
    <v>       0.00000000       0.00000000      19.92151445 </v>
   </varray>
   <i name="volume">   5343.94461817 </i>
   <varray name="rec_basis" >
    <v>       0.05681925       0.03280461       0.00000000 </v>
    <v>       0.00000000       0.06560922       0.00000000 </v>
    <v>       0.00000000       0.00000000       0.05019699 </v>
   </varray>
  </crystal>
  <varray name="positions" >
   <v>       0.99943010       0.00005992       0.50000000 </v>
   <v>       0.14164706       0.99871895       0.50000000 </v>
   <v>       0.28492260       0.99841663       0.50000000 </v>
   <v>       0.42850047       0.99871895       0.50000000 </v>
   <v>       0.57205839       0.00005992       0.50000000 </v>
   <v>       0.71530655       0.00214292       0.50000000 </v>
   <v>       0.85826494       0.00214292       0.50000000 </v>
   <v>       0.00080792       0.14465083       0.50000000 </v>
   <v>       0.14259355       0.14244783       0.50000000 </v>
   <v>       0.28470221       0.14112972       0.50000000 </v>
   <v>       0.42785608       0.14112972       0.50000000 </v>
   <v>       0.57128286       0.14244783       0.50000000 </v>
   <v>       0.71470329       0.14408264       0.50000000 </v>
   <v>       0.85805263       0.14467669       0.50000000 </v>
   <v>       0.00095476       0.28713011       0.50000000 </v>
   <v>       0.14372552       0.28645370       0.50000000 </v>
   <v>       0.28540977       0.28469374       0.50000000 </v>
   <v>       0.42724431       0.28306005       0.50000000 </v>
   <v>       0.57071254       0.28469374       0.50000000 </v>
   <v>       0.71415674       0.28645370       0.50000000 </v>
   <v>       0.85760392       0.28713011       0.50000000 </v>
   <v>       0.00054479       0.42966101       0.50000000 </v>
   <v>       0.14422690       0.42957551       0.50000000 </v>
   <v>       0.28730213       0.42918005       0.50000000 </v>
   <v>       0.42797654       0.42569726       0.50000000 </v>
   <v>       0.56914930       0.42569726       0.50000000 </v>
   <v>       0.71330650       0.42918005       0.50000000 </v>
   <v>       0.85677719       0.42957551       0.50000000 </v>
   <v>       0.99928255       0.57181462       0.50000000 </v>
   <v>       0.14396064       0.57181462       0.50000000 </v>
   <v>       0.28862787       0.57181625       0.50000000 </v>
   <v>       0.43313209       0.57215564       0.50000000 </v>
   <v>       0.71045212       0.57215564       0.50000000 </v>
   <v>       0.85461695       0.57181625       0.50000000 </v>
   <v>       0.99707234       0.71370518       0.50000000 </v>
   <v>       0.14255519       0.71368182       0.50000000 </v>
   <v>       0.28806142       0.71370518       0.50000000 </v>
   <v>       0.43464191       0.71382540       0.50000000 </v>
   <v>       0.58510826       0.71626937       0.50000000 </v>
   <v>       0.70258968       0.71626937       0.50000000 </v>
   <v>       0.85061206       0.71382540       0.50000000 </v>
   <v>       0.99777175       0.85613493       0.50000000 </v>
   <v>       0.14160898       0.85591288       0.50000000 </v>
   <v>       0.28573247       0.85591288       0.50000000 </v>
   <v>       0.42979175       0.85613493       0.50000000 </v>
   <v>       0.57342541       0.85758690       0.50000000 </v>
   <v>       0.71640633       0.86138410       0.50000000 </v>
   <v>       0.85559006       0.85758690       0.50000000 </v>
   <v>       0.04754270       0.09547788       0.50000000 </v>
   <v>       0.18957833       0.09405657       0.50000000 </v>
   <v>       0.33254182       0.09365506       0.50000000 </v>
   <v>       0.47590681       0.09405657       0.50000000 </v>
   <v>       0.61936376       0.09547788       0.50000000 </v>
   <v>       0.76280004       0.09719274       0.50000000 </v>
   <v>       0.90582126       0.09719274       0.50000000 </v>
   <v>       0.04854983       0.23934281       0.50000000 </v>
   <v>       0.19048138       0.23782962       0.50000000 </v>
   <v>       0.33234878       0.23634667       0.50000000 </v>
   <v>       0.47542646       0.23634667       0.50000000 </v>
   <v>       0.61877681       0.23782962       0.50000000 </v>
   <v>       0.76222155       0.23934281       0.50000000 </v>
   <v>       0.90562797       0.23982737       0.50000000 </v>
   <v>       0.04871288       0.38232824       0.50000000 </v>
   <v>       0.19188940       0.38184213       0.50000000 </v>
   <v>       0.33352206       0.38013969       0.50000000 </v>
   <v>       0.47472270       0.37801683       0.50000000 </v>
   <v>       0.61804620       0.38013969       0.50000000 </v>
   <v>       0.76138130       0.38184213       0.50000000 </v>
   <v>       0.90504393       0.38232824       0.50000000 </v>
   <v>       0.04810654       0.52478452       0.50000000 </v>
   <v>       0.19263929       0.52476864       0.50000000 </v>
   <v>       0.33696521       0.52455433       0.50000000 </v>
   <v>       0.47833704       0.52146721       0.50000000 </v>
   <v>       0.61455874       0.52146721       0.50000000 </v>
   <v>       0.75901769       0.52455433       0.50000000 </v>
   <v>       0.90355792       0.52476864       0.50000000 </v>
   <v>       0.04642473       0.66685228       0.50000000 </v>
   <v>       0.19185612       0.66685228       0.50000000 </v>
   <v>       0.33777931       0.66688794       0.50000000 </v>
   <v>       0.48615700       0.66710760       0.50000000 </v>
   <v>       0.75237918       0.66710760       0.50000000 </v>
   <v>       0.90053720       0.66688794       0.50000000 </v>
   <v>       0.04582562       0.80879365       0.50000000 </v>
   <v>       0.19009580       0.80876303       0.50000000 </v>
   <v>       0.33439660       0.80879365       0.50000000 </v>
   <v>       0.47844872       0.80897069       0.50000000 </v>
   <v>       0.62209487       0.81129474       0.50000000 </v>
   <v>       0.76062845       0.81129474       0.50000000 </v>
   <v>       0.90195054       0.80897069       0.50000000 </v>
   <v>       0.04629157       0.95154386       0.50000000 </v>
   <v>       0.18948291       0.95113037       0.50000000 </v>
   <v>       0.33307603       0.95113037       0.50000000 </v>
   <v>       0.47668087       0.95154386       0.50000000 </v>
   <v>       0.62015751       0.95313740       0.50000000 </v>
   <v>       0.76355772       0.95568687       0.50000000 </v>
   <v>       0.90440847       0.95313740       0.50000000 </v>
   <v>       0.56830873       0.56518888       0.50000000 </v>
  </varray>
 </structure>
</modeling>
