97   
194  

1    
  0.0066208391584279   0.0000000000000000   0.0074942970876679
  -0.3700367700   -0.0253045200   -0.1067890100
   0.0071649500   -0.0037375700    0.0001880100
   0.0038490500   -0.0111378800   -0.0004682400
   0.0239452100   -0.0093545000    0.0000073300
   0.0417154600   -0.0268161400    0.0000072500
  -0.0297758200   -0.0515554900   -0.0004884100
   0.0629988500   -0.0563328800    0.0003080700
  -0.0142359200   -0.0416673500    0.0004461700
  -0.0346582500   -0.0101973400    0.0001718600
  -0.0041306200   -0.0311073000    0.0000868200
   0.0098366300   -0.0324987800   -0.0000152200
   0.0287786600   -0.0255303800   -0.0000146900
   0.0080774500   -0.0280524400   -0.0000129900
   0.0033890300   -0.0439685800    0.0000712900
  -0.0101277700   -0.0306465300   -0.0004660800
   0.0044633600   -0.0443387300    0.0000757100
  -0.0320866100   -0.0013649600   -0.0004780600
   0.0008588700   -0.0929544200   -0.0000185400
   0.0316016600   -0.0023169900   -0.0000079700
  -0.0042711700   -0.0447896000   -0.0000125500
   0.0093430400   -0.0302979100   -0.0000136000
  -0.0001024000    0.0063318700    0.0000073300
  -0.0257214900   -0.0012918400   -0.0000143500
   0.0570349100   -0.1380783100   -0.0000168400
  -0.1119915600   -0.1994510200    0.0000516100
   0.1121914000   -0.1996000300    0.0000034500
  -0.0570402700   -0.1383497600   -0.0000195800
   0.0256319400   -0.0018317200   -0.0000151900
   0.0168166400    0.0273280300    0.0000088300
  -0.0166646100    0.0281090300   -0.0000157100
  -0.0853350000    0.1281624700   -0.0000116000
   0.0507557900    0.3976313200   -0.0000224900
  -0.0508205700    0.3981500800    0.0000040400
   0.0852814900    0.1268940000   -0.0000111000
  -0.0100328700    0.0174149600   -0.0004739700
   0.0008331700    0.0259664300   -0.0000119000
   0.0094621000    0.0219700300   -0.0000139000
   0.0875291900    0.0434339300   -0.0000109000
   1.3646014100    1.2524752800    0.0004286700
  -1.3655976500    1.2556765500    0.0000763600
  -0.0873953300    0.0428013200    0.0000601800
  -0.0548188100   -0.0349099900    0.0002956700
  -0.0093000400   -0.0067807400    0.0000721300
   0.0148762400   -0.0045650200   -0.0000153100
   0.0483683600   -0.0077870700   -0.0000097400
   0.1531094300    0.0364118100   -0.0000851100
   0.0032996600   -0.2498498500    0.0001803500
  -0.1578374600    0.0639970700    0.0001748900
   0.0802807000    0.0318561000    0.0378763900
   0.0090090700    0.0141806000    0.0015804000
  -0.0025065300    0.0258232500    0.0000460900
  -0.0123858200    0.0229805300    0.0000103900
  -0.0282721800    0.0325136300    0.0000125200
  -0.0150628200    0.0288005900    0.0000454100
   0.0111417600    0.0363349700    0.0015304900
   0.0201254600    0.0348585100   -0.0020811300
  -0.0047953700    0.0040738600   -0.0021374100
   0.0153834500    0.0333730600    0.0000450500
  -0.0166675500    0.0349008700    0.0000143800
   0.0076281500    0.0034619200    0.0000089900
  -0.0172267600    0.0365247400    0.0000155900
  -0.0003391800    0.0336508400    0.0000488400
   0.0115325900    0.0269850500    0.0001405900
   0.0482848100    0.0595643200    0.0001878900
  -0.0213551800   -0.2005813900    0.0001298800
  -0.0001884800    0.1094662000   -0.0000015100
   0.0214767600   -0.2002348300    0.0000160800
  -0.0481737000    0.0599681600    0.0000132300
  -0.0113234200    0.0273196900    0.0000095700
  -0.0002530500    0.0100014900    0.0000051900
   0.0253975300   -0.0067686000    0.0000004500
   0.1898851200    0.1121398800   -0.0000035600
   1.0229338100   -1.5641417800    0.0001337300
  -1.0230765600   -1.5641190400    0.0000813500
  -0.1894044300    0.1124630500    0.0000126100
  -0.0255617800   -0.0061315600    0.0000097400
   0.0092306500   -0.0309444600    0.0001491800
  -0.0108873000   -0.0322204200   -0.0000003600
  -0.0599749700   -0.0665095500    0.0000089500
  -0.2716324900    0.0082582200    0.0000389300
   0.2728617900    0.0074158700    0.0000442900
   0.0609968300   -0.0650122900    0.0000483500
   0.0328416500   -0.0047391800   -0.0021343100
  -0.0026794200   -0.0094508900    0.0001858900
  -0.0381246600   -0.0126421800   -0.0000014700
  -0.0871198100   -0.0137856500    0.0000104500
  -0.8888245500    0.2420759300   -0.0000555800
   0.8820612000    0.2349007500   -0.0025079700
   0.0992813000   -0.0134647800    0.0015465600
   0.1519510700   -0.0223300100    0.0374087000
   0.0036905000   -0.0017386600   -0.0020751800
  -0.0125795400   -0.0035765700    0.0001393500
  -0.0337324300    0.0171094800    0.0000043100
  -0.1132431500    0.1190739900    0.0001736900
  -0.0066232900    0.0143680600   -0.0021068100
   0.2319934100    0.1571277700    0.0387088700
   0.0001938600   -0.1194680800   -0.0005301100

1    
 -0.0066208391584279   0.0000000000000000  -0.0074942970876679
   0.2910719100   -0.0213941400    0.1067410200
  -0.0506072600   -0.0155981500   -0.0003761300
  -0.0038370900   -0.0145875500    0.0004743200
   0.0197692700   -0.0099590800   -0.0000075300
   0.0375128600   -0.0261229300   -0.0000067400
  -0.0376120800   -0.0478711000    0.0004818800
   0.0041075900   -0.0431029000   -0.0001149700
   0.0024337200   -0.0122125200   -0.0003008400
  -0.0196206600   -0.0408160500   -0.0003200000
  -0.0112729600   -0.0360400700   -0.0000849500
   0.0055703000   -0.0346473700    0.0000151100
   0.0253808700   -0.0255235600    0.0000148400
   0.0038564100   -0.0258668600    0.0000134500
  -0.0033870200   -0.0391105000   -0.0000729400
  -0.0069642900   -0.0280319300    0.0004635700
   0.0061052900   -0.0444779200   -0.0000756200
  -0.0290831100   -0.0040849600    0.0004809400
  -0.0008617800   -0.0948163700    0.0000185000
   0.0295456400   -0.0031314400    0.0000080700
  -0.0062885700   -0.0440019900    0.0000126700
   0.0077824400   -0.0283806300    0.0000140700
   0.0001104600    0.0081729000   -0.0000070800
  -0.0250683300   -0.0007295300    0.0000145600
   0.0576790200   -0.1388613000    0.0000169900
  -0.1118887400   -0.2009212500   -0.0000513000
   0.1116832300   -0.2007691600   -0.0000031900
  -0.0576761800   -0.1385857000    0.0000196800
   0.0251728500   -0.0001852500    0.0000153300
   0.0170334800    0.0305315200   -0.0000090200
  -0.0171723000    0.0297483200    0.0000159200
  -0.0859698200    0.1281148400    0.0000117000
   0.0502742500    0.3955978300    0.0000224400
  -0.0502090100    0.3950759900   -0.0000041200
   0.0860302700    0.1293806400    0.0000113100
  -0.0068333700    0.0273394000    0.0004773800
  -0.0008283400    0.0296117000    0.0000118100
   0.0074200000    0.0227862500    0.0000140000
   0.0855196900    0.0426691300    0.0000110500
   1.3639701800    1.2488465400   -0.0004255300
  -1.3629782100    1.2456422100   -0.0000762800
  -0.0856519300    0.0432818300   -0.0000600700
  -0.0384545300    0.0193181000   -0.0003341100
  -0.0162352700   -0.0018763900   -0.0000753800
   0.0106688000   -0.0040921700    0.0000152000
   0.0449573100   -0.0077594900    0.0000099500
   0.1487456500    0.0360361800    0.0000852400
  -0.0033033600   -0.2551648900   -0.0001751400
  -0.1440685300    0.0083912500   -0.0001306200
  -0.0271436600    0.0313958800   -0.0378876000
   0.0122843500    0.0324338700   -0.0015628400
   0.0025718300    0.0289772600   -0.0000466800
  -0.0088816600    0.0236277100   -0.0000097600
  -0.0247893900    0.0318008200   -0.0000125500
  -0.0100992600    0.0254383300   -0.0000445900
   0.0138907700    0.0178767800   -0.0015476400
   0.0124985200    0.0362215800    0.0020781200
  -0.0123526700    0.0029199000    0.0021424100
   0.0161477900    0.0383121500   -0.0000457900
  -0.0147698300    0.0367792700   -0.0000140200
   0.0095031700    0.0034577500   -0.0000086400
  -0.0154323200    0.0345847100   -0.0000158000
   0.0002776600    0.0288106900   -0.0000476500
   0.0107640600    0.0255866000   -0.0001405900
   0.0477393300    0.0596593800   -0.0001877700
  -0.0221206300   -0.1990860300   -0.0001297100
   0.0002178000    0.1113940900    0.0000014900
   0.0219714600   -0.1993850800   -0.0000158200
  -0.0478480500    0.0591556200   -0.0000130300
  -0.0109702800    0.0252708400   -0.0000097200
   0.0002087100    0.0080144900   -0.0000048500
   0.0261566500   -0.0074503600   -0.0000002500
   0.1906762800    0.1130393100    0.0000038200
   1.0230151800   -1.5628623400   -0.0001339400
  -1.0229303800   -1.5628947000   -0.0000817800
  -0.1911902500    0.1126884500   -0.0000126000
  -0.0260759400   -0.0080889700   -0.0000095500
   0.0103343800   -0.0353851500   -0.0001498800
  -0.0086830100   -0.0340246900    0.0000000500
  -0.0577762500   -0.0664961800   -0.0000088700
  -0.2691147400    0.0101120200   -0.0000383900
   0.2679139400    0.0110268500   -0.0000444800
   0.0567444800   -0.0679516300   -0.0000479800
   0.0398120600   -0.0212914200    0.0021541300
   0.0027282600   -0.0129185200   -0.0001866500
  -0.0344653300   -0.0133439200    0.0000017500
  -0.0834335500   -0.0130517400   -0.0000099000
  -0.8836040100    0.2456355200    0.0000550900
   0.8904276200    0.2527923700    0.0024849100
   0.0712035200   -0.0133396800   -0.0015463700
  -0.0848943500    0.0539588100   -0.0383839700
   0.0163146700   -0.0054671900    0.0020981900
  -0.0073977500   -0.0036547700   -0.0001402600
  -0.0297875600    0.0170910200   -0.0000044700
  -0.1080077400    0.1190978000   -0.0001722200
   0.0065630500    0.0181117800    0.0020819200
  -0.0145461900    0.0784175000   -0.0376796500
  -0.0001794900   -0.1188182900    0.0005149800

1    
 -0.0050000000000000   0.0086602540378444   0.0000000000000000
   0.2013226900   -0.4561104400   -0.0000000000
  -0.0520061200   -0.0405700800   -0.0000000000
  -0.0052117300   -0.0185698100   -0.0000000000
   0.0198851200   -0.0109679300   -0.0000000000
   0.0384886100   -0.0272858400    0.0000000000
  -0.0342777400   -0.0527219500    0.0000000000
   0.0191042300   -0.0713512600   -0.0000000000
  -0.0353032500    0.0062430100   -0.0000000000
   0.0148916200   -0.0155833400   -0.0000000000
  -0.0071339900   -0.0345937500   -0.0000000000
   0.0064058800   -0.0349191400   -0.0000000000
   0.0258217500   -0.0258434400   -0.0000000000
   0.0040791200   -0.0266177200   -0.0000000000
  -0.0059236300   -0.0388339300   -0.0000000000
  -0.0136389900   -0.0256549500   -0.0000000000
   0.0058311700   -0.0380247300   -0.0000000000
  -0.0229513000   -0.0010695400   -0.0000000000
   0.0017870700   -0.0934701500    0.0000000000
   0.0303549200   -0.0024060400   -0.0000000000
  -0.0065623900   -0.0434153800   -0.0000000000
   0.0055800800   -0.0274129200   -0.0000000000
  -0.0019344400    0.0097173100   -0.0000000000
  -0.0266332100    0.0018903300   -0.0000000000
   0.0591689400   -0.1360147800   -0.0000000000
  -0.1098495200   -0.1991693000   -0.0000000000
   0.1127435100   -0.1995267400   -0.0000000000
  -0.0575350600   -0.1368944700   -0.0000000000
   0.0241842200    0.0012133500    0.0000000000
   0.0158176100    0.0318903500   -0.0000000000
  -0.0181543300    0.0311038900    0.0000000000
  -0.0858228000    0.1297278100   -0.0000000000
   0.0514955400    0.3975036500    0.0000000000
  -0.0498159600    0.3983352800   -0.0000000000
   0.0855403500    0.1317841400   -0.0000000000
  -0.0089167800    0.0288069100   -0.0000000000
  -0.0018717300    0.0303459900   -0.0000000000
   0.0071531200    0.0233615500   -0.0000000000
   0.0863058100    0.0434341600   -0.0000000000
   1.3648304800    1.2507054700    0.0000000000
  -1.3621724700    1.2491757300   -0.0000000000
  -0.0857185700    0.0495210500   -0.0000000000
  -0.0596017400    0.0344419200   -0.0000000000
  -0.0186019700   -0.0016293100   -0.0000000000
   0.0097863800   -0.0046481500   -0.0000000000
   0.0454239500   -0.0080758300   -0.0000000000
   0.1508057400    0.0355603700    0.0000000000
   0.0005934000   -0.2535195400   -0.0000000000
  -0.1258444200    0.0362325300   -0.0000000000
  -0.0132634800    0.2210737300    0.0000000000
  -0.0002168400    0.0423209800    0.0000000000
   0.0003526200    0.0312562600   -0.0000000000
  -0.0095318200    0.0243567200    0.0000000000
  -0.0250463800    0.0326958000    0.0000000000
  -0.0091043400    0.0285218500    0.0000000000
   0.0258721100    0.0319024000   -0.0000000000
   0.0186693400    0.0260004500    0.0000000000
  -0.0168062800   -0.0073199400   -0.0000000000
   0.0122988700    0.0375572500    0.0000000000
  -0.0162869300    0.0368600000   -0.0000000000
   0.0092382500    0.0035608400    0.0000000000
  -0.0144252900    0.0350791200   -0.0000000000
   0.0039137400    0.0291392500    0.0000000000
   0.0130307800    0.0229023700    0.0000000000
   0.0477513900    0.0547911900    0.0000000000
  -0.0242458400   -0.2022326800   -0.0000000000
  -0.0013570000    0.1100670900   -0.0000000000
   0.0212422600   -0.2002960700   -0.0000000000
  -0.0473932600    0.0583711100    0.0000000000
  -0.0094389000    0.0242785400   -0.0000000000
   0.0014399300    0.0064573900    0.0000000000
   0.0266699600   -0.0097466600    0.0000000000
   0.1898468400    0.1105098400    0.0000000000
   1.0218314200   -1.5644593900    0.0000000000
  -1.0243239400   -1.5640601300    0.0000000000
  -0.1910004500    0.1107315700    0.0000000000
  -0.0249717700   -0.0096446600   -0.0000000000
   0.0117973800   -0.0365340000   -0.0000000000
  -0.0079480500   -0.0352175400    0.0000000000
  -0.0580981900   -0.0678642200   -0.0000000000
  -0.2706162400    0.0085572100    0.0000000000
   0.2673575600    0.0071514700    0.0000000000
   0.0586446700   -0.0710053800   -0.0000000000
   0.0435112600   -0.0200469700    0.0000000000
   0.0042936300   -0.0134269400   -0.0000000000
  -0.0343254400   -0.0137020900    0.0000000000
  -0.0845637700   -0.0136054500   -0.0000000000
  -0.8865566900    0.2442391200   -0.0000000000
   0.8845633900    0.2497535900    0.0000000000
   0.0741581900   -0.0223757600    0.0000000000
  -0.1024300600    0.1430069700   -0.0000000000
   0.0233114500   -0.0019383900   -0.0000000000
  -0.0067667300   -0.0026052900    0.0000000000
  -0.0303083000    0.0175719200   -0.0000000000
  -0.1099735500    0.1201330000    0.0000000000
  -0.0037720600    0.0207578600   -0.0000000000
   0.0698841000    0.1895040200   -0.0000000000
   0.0011732900   -0.1191217200   -0.0000000000

1    
  0.0050000000000000  -0.0086602540378444   0.0000000000000000
  -0.2929373800    0.3963969900    0.0000000000
   0.0084455400    0.0212538500    0.0000000000
   0.0052418500   -0.0071634000    0.0000000000
   0.0238421400   -0.0083493300    0.0000000000
   0.0407556500   -0.0256611900    0.0000000000
  -0.0330693800   -0.0467428400   -0.0000000000
   0.0483490500   -0.0283431700    0.0000000000
   0.0230929000   -0.0596282400    0.0000000000
  -0.0689838500   -0.0353465700    0.0000000000
  -0.0082152700   -0.0325221600    0.0000000000
   0.0090210400   -0.0322206600    0.0000000000
   0.0283495100   -0.0252113600    0.0000000000
   0.0078654400   -0.0273093000    0.0000000000
   0.0059196100   -0.0442423500    0.0000000000
  -0.0034988500   -0.0330095900    0.0000000000
   0.0047277400   -0.0507454000    0.0000000000
  -0.0381887300   -0.0043529400    0.0000000000
  -0.0017683800   -0.0942858400    0.0000000000
   0.0308036000   -0.0030353600    0.0000000000
  -0.0039934700   -0.0453745300    0.0000000000
   0.0115363200   -0.0312651200    0.0000000000
   0.0019312500    0.0047915200    0.0000000000
  -0.0241684200   -0.0038964400    0.0000000000
   0.0555533900   -0.1409044500    0.0000000000
  -0.1140207000   -0.2011890400    0.0000000000
   0.1111387400   -0.2008327300    0.0000000000
  -0.0571785100   -0.1400315900    0.0000000000
   0.0266163200   -0.0032276900    0.0000000000
   0.0180263600    0.0259663100   -0.0000000000
  -0.0156859800    0.0267563400   -0.0000000000
  -0.0854785600    0.1265597400    0.0000000000
   0.0495421400    0.3957423600   -0.0000000000
  -0.0512118400    0.3949142400    0.0000000000
   0.0857656000    0.1244942900   -0.0000000000
  -0.0079626700    0.0159226400    0.0000000000
   0.0018776000    0.0252245200    0.0000000000
   0.0097346500    0.0213956700    0.0000000000
   0.0867537400    0.0426755100    0.0000000000
   1.3637469400    1.2506404900    0.0000000000
  -1.3664081900    1.2521924900    0.0000000000
  -0.0873304500    0.0365725800    0.0000000000
  -0.0334133900   -0.0505194300   -0.0000000000
  -0.0069218900   -0.0070483200   -0.0000000000
   0.0157680800   -0.0040137100   -0.0000000000
   0.0479144700   -0.0074735700    0.0000000000
   0.1510752800    0.0368827000    0.0000000000
  -0.0005520600   -0.2514702300    0.0000000000
  -0.1761895300    0.0364041700    0.0000000000
   0.0673229100   -0.1452763900    0.0000000000
   0.0213218900    0.0042296000   -0.0000000000
  -0.0003199900    0.0235463800   -0.0000000000
  -0.0117502600    0.0222536400   -0.0000000000
  -0.0280250200    0.0316253600    0.0000000000
  -0.0160572800    0.0257422300    0.0000000000
  -0.0007723800    0.0224286200    0.0000000000
   0.0139766200    0.0450265600    0.0000000000
  -0.0003599000    0.0142343100   -0.0000000000
   0.0192072900    0.0341047900    0.0000000000
  -0.0151658000    0.0348135900   -0.0000000000
   0.0078859700    0.0033588700   -0.0000000000
  -0.0182329000    0.0360374600   -0.0000000000
  -0.0039563000    0.0333318400    0.0000000000
   0.0092788800    0.0296582900   -0.0000000000
   0.0482738400    0.0643983800    0.0000000000
  -0.0192405100   -0.1974567600    0.0000000000
   0.0013768400    0.1107796200   -0.0000000000
   0.0222006100   -0.1993316900    0.0000000000
  -0.0486271800    0.0607506300   -0.0000000000
  -0.0128473700    0.0283120000   -0.0000000000
  -0.0014800700    0.0115559000    0.0000000000
   0.0248841800   -0.0044842800    0.0000000000
   0.1907073800    0.1146521600    0.0000000000
   1.0241112900   -1.5625576000    0.0000000000
  -1.0216891600   -1.5629627400    0.0000000000
  -0.1895884000    0.1144102200    0.0000000000
  -0.0266590800   -0.0045772300    0.0000000000
   0.0077697200   -0.0297884700    0.0000000000
  -0.0116262700   -0.0310286100    0.0000000000
  -0.0596617600   -0.0651496600    0.0000000000
  -0.2701458500    0.0097979100    0.0000000000
   0.2734347200    0.0112683500   -0.0000000000
   0.0591136600   -0.0619601700    0.0000000000
   0.0291363200   -0.0059648400    0.0000000000
  -0.0042562000   -0.0089334900   -0.0000000000
  -0.0382753000   -0.0122837400    0.0000000000
  -0.0860071500   -0.0132371300   -0.0000000000
  -0.8859065300    0.2434508100   -0.0000000000
   0.8878695700    0.2378805500    0.0000000000
   0.0964196200   -0.0045074400    0.0000000000
   0.1764523800   -0.1140525700   -0.0000000000
  -0.0033505000   -0.0052510600    0.0000000000
  -0.0132249100   -0.0046210900    0.0000000000
  -0.0332256900    0.0166316400   -0.0000000000
  -0.1112986500    0.1180454500   -0.0000000000
   0.0036430700    0.0117116600   -0.0000000000
   0.1522986200    0.0491834800    0.0000000000
  -0.0011524700   -0.1191652000    0.0000000000

2    
  0.0066208391584279   0.0000000000000000   0.0074942970876679
  -0.0108619200   -0.0329043700    0.0003768000
  -0.3479221900   -0.0069749400   -0.1070403100
   0.0287370100   -0.0067409100    0.0003178500
   0.0256920600   -0.0079190000   -0.0004643600
   0.0417028100   -0.0261625900    0.0000073700
  -0.0316465500   -0.0500469300    0.0000113300
   0.0375657400   -0.0515517500   -0.0004940600
  -0.0026270300   -0.0293903900    0.0000733100
  -0.0351154700   -0.0402866000    0.0004077600
  -0.0154483700   -0.0183470300    0.0001652300
   0.0112176700   -0.0311129200    0.0000779200
   0.0291855600   -0.0244383100   -0.0000149100
   0.0076267200   -0.0269602600   -0.0000157200
   0.0020683600   -0.0426176200   -0.0000133300
  -0.0077829800   -0.0302875500   -0.0000139300
   0.0037451400   -0.0456826600   -0.0004652700
  -0.0313840400   -0.0026961500    0.0000752300
  -0.0015317200   -0.0925574700   -0.0004693300
   0.0313931100   -0.0017711700   -0.0000127600
  -0.0042852200   -0.0439701500   -0.0000124500
   0.0095388800   -0.0297349600   -0.0000125700
   0.0002306700    0.0064362700   -0.0000152500
  -0.0254969600   -0.0019169500    0.0000066700
   0.0570331800   -0.1387369800   -0.0000151300
  -0.1122592100   -0.1999299500   -0.0000237800
   0.1118189900   -0.1994537100   -0.0000057600
  -0.0571112500   -0.1376045400   -0.0000149800
   0.0256773400   -0.0009735500   -0.0000126900
   0.0165900800    0.0277469900   -0.0000150000
  -0.0170261700    0.0273499200    0.0000082200
  -0.0853970300    0.1273352800   -0.0000160700
   0.0507968400    0.3967174300   -0.0000109500
  -0.0506390600    0.3982704100    0.0000076700
   0.0853105100    0.1293656000   -0.0000154000
  -0.0092064300    0.0224008600    0.0000806700
  -0.0015737000    0.0228398200   -0.0004735600
   0.0092797800    0.0205576900   -0.0000122500
   0.0875318100    0.0426402400   -0.0000121100
   1.3649084200    1.2512671700   -0.0000485000
  -1.3638748000    1.2522680300   -0.0000527300
  -0.0879686600    0.0479493300   -0.0004701600
  -0.0541696500    0.0198616500    0.0003758300
  -0.0207698400   -0.0318761100    0.0001886600
   0.0162619700   -0.0067588700    0.0000717200
   0.0487835100   -0.0080070700   -0.0000152600
   0.1526659900    0.0361914400   -0.0000107800
   0.0019542300   -0.2522402800   -0.0000203800
  -0.1473813700    0.0386217200    0.0001021700
   0.0251899400    0.0412776800    0.0015147900
   0.0641258600    0.0227760000    0.0378998100
  -0.0015379000    0.0181864000    0.0015500300
  -0.0131380600    0.0217136000    0.0000456900
  -0.0282595800    0.0318417800    0.0000102700
  -0.0142941800    0.0274743700    0.0000099700
   0.0100980900    0.0287392200    0.0000488800
   0.0160321800    0.0378974100    0.0000482700
  -0.0048364000    0.0028108800   -0.0020677900
   0.0195763500    0.0364929300   -0.0021545900
  -0.0160688300    0.0333951400    0.0000471400
   0.0076541900    0.0025112500    0.0000162000
  -0.0172360800    0.0355622000    0.0000119400
  -0.0009044200    0.0321753500    0.0000155600
   0.0109731900    0.0272930600    0.0000104800
   0.0483818000    0.0603054100    0.0001388000
  -0.0214544700   -0.1998646300    0.0001964900
   0.0004135000    0.1097533900    0.0001573100
   0.0215060600   -0.2008319400    0.0000116800
  -0.0481891700    0.0591352400    0.0000118600
  -0.0113042700    0.0267027700    0.0000119600
   0.0002233700    0.0099725100    0.0000109300
   0.0255453900   -0.0061291400    0.0000048800
   0.1899034400    0.1129153100    0.0000007900
   1.0227127000   -1.5637691300   -0.0000341600
  -1.0233359400   -1.5641936200   -0.0000199600
  -0.1900538400    0.1115810000    0.0000109700
  -0.0250143100   -0.0071424400    0.0000156400
   0.0119439200   -0.0317518600    0.0000470900
  -0.0103213000   -0.0309329700    0.0001476600
  -0.0599793000   -0.0656092200   -0.0000005200
  -0.2715162500    0.0091968400    0.0000136400
   0.2699598300    0.0070360200    0.0001366200
   0.0610402000   -0.0679915300    0.0000435800
   0.0508899600   -0.0131023600    0.0015349400
  -0.0035394200   -0.0029702300   -0.0021132300
  -0.0390195900   -0.0112734800    0.0001881400
  -0.0871217500   -0.0130731400   -0.0000012800
  -0.8881298900    0.2435704300    0.0000174400
   0.8833531000    0.2418985600    0.0002201100
   0.0815194900   -0.0216377600   -0.0020679400
   0.1492773300    0.0530571700    0.0385407900
   0.1305054300   -0.0418609100    0.0374959100
  -0.0163136500   -0.0017903700   -0.0020555300
  -0.0343502300    0.0171309600    0.0001392400
  -0.1125943300    0.1191335300    0.0000027300
  -0.0026284400    0.0161908400    0.0001460100
   0.1040933700    0.1172814600   -0.0020990800
   0.0003861400   -0.1192520800    0.0000751500

2    
 -0.0066208391584279   0.0000000000000000  -0.0074942970876679
  -0.0686341200   -0.0200446700   -0.0001873700
   0.3042467600   -0.0061824100    0.1070335800
  -0.0284605900   -0.0190070700   -0.0005041100
   0.0180311500   -0.0113924100    0.0004703700
   0.0375268800   -0.0267767600   -0.0000074900
  -0.0357316200   -0.0493836800   -0.0000107500
   0.0298052600   -0.0478747600    0.0004877000
  -0.0092991100   -0.0245309200   -0.0000751000
  -0.0189154100   -0.0107275400   -0.0002619800
  -0.0000774800   -0.0487586600   -0.0003126400
   0.0041893200   -0.0360345300   -0.0000760300
   0.0249733400   -0.0266147500    0.0000147000
   0.0043064200   -0.0269601500    0.0000158500
  -0.0020666500   -0.0404600600    0.0000137900
  -0.0093261700   -0.0283913400    0.0000143900
   0.0068456300   -0.0431102400    0.0004627100
  -0.0297621900   -0.0027765500   -0.0000751200
   0.0015121400   -0.0952123400    0.0004722100
   0.0297495800   -0.0036782100    0.0000125100
  -0.0062772000   -0.0448215800    0.0000126200
   0.0075819300   -0.0289427700    0.0000127000
  -0.0002266200    0.0080686200    0.0000153700
  -0.0252904300   -0.0001002400   -0.0000064300
   0.0576903200   -0.1382022200    0.0000153300
  -0.1116185500   -0.2004452000    0.0000240900
   0.1120517100   -0.2009151300    0.0000059900
  -0.0576086600   -0.1393302300    0.0000151200
   0.0251241600   -0.0010446400    0.0000128500
   0.0172571700    0.0301073100    0.0000150700
  -0.0168091300    0.0305087500   -0.0000082900
  -0.0859044500    0.1289426800    0.0000161700
   0.0502367600    0.3965116200    0.0000109900
  -0.0503942500    0.3949605000   -0.0000075100
   0.0859979200    0.1269083400    0.0000155900
  -0.0076709100    0.0223347900   -0.0000804100
   0.0015870300    0.0327361900    0.0004769400
   0.0076039200    0.0241969000    0.0000121400
   0.0855204700    0.0434629400    0.0000122300
   1.3636661300    1.2500584100    0.0000495700
  -1.3646967500    1.2490553500    0.0000540600
  -0.0850888800    0.0381484000    0.0004669700
  -0.0392020400   -0.0354653800   -0.0003331500
  -0.0047234800    0.0231654600   -0.0002293200
   0.0092852800   -0.0018985600   -0.0000748600
   0.0445464700   -0.0075380800    0.0000151300
   0.1491940300    0.0362551700    0.0000108300
  -0.0019557600   -0.2527738800    0.0000207600
  -0.1544788100    0.0338230500   -0.0000985400
   0.0279069600    0.0230214900   -0.0015325500
  -0.0428940300    0.0227713900   -0.0379036900
   0.0016517000    0.0365991700   -0.0015322800
  -0.0081269300    0.0248920900   -0.0000458200
  -0.0248008800    0.0324729600   -0.0000100800
  -0.0108650300    0.0267677200   -0.0000100100
   0.0149840200    0.0254859300   -0.0000479400
   0.0166255000    0.0331280000   -0.0000471500
  -0.0124004000    0.0041811300    0.0020643500
   0.0119882600    0.0352474600    0.0021590600
  -0.0153613000    0.0382830600   -0.0000477400
   0.0094806600    0.0044078900   -0.0000156800
  -0.0154195500    0.0355480700   -0.0000119900
   0.0008501500    0.0302882100   -0.0000154500
   0.0113278300    0.0252713700   -0.0000102900
   0.0476330600    0.0589125600   -0.0001389300
  -0.0220308700   -0.1997984000   -0.0001964600
  -0.0003799500    0.1111135900   -0.0001571300
   0.0219455300   -0.1987878400   -0.0000114700
  -0.0478289100    0.0599887100   -0.0000116400
  -0.0109863300    0.0258876900   -0.0000119900
  -0.0002677000    0.0080434000   -0.0000107000
   0.0260065700   -0.0080926100   -0.0000045500
   0.1906538200    0.1122635100   -0.0000005500
   1.0232341500   -1.5632347300    0.0000339700
  -1.0226703300   -1.5628212600    0.0000198500
  -0.1905368700    0.1135695400   -0.0000109700
  -0.0266197600   -0.0070764900   -0.0000154700
   0.0076171700   -0.0345688000   -0.0000460500
  -0.0092496400   -0.0353160000   -0.0001496700
  -0.0577748100   -0.0673968900    0.0000008400
  -0.2692340200    0.0091730100   -0.0000131300
   0.2708142800    0.0113988300   -0.0001350800
   0.0567132400   -0.0649715600   -0.0000437100
   0.0217716900   -0.0128443200   -0.0015344300
   0.0035846500   -0.0194335900    0.0021331300
  -0.0335760600   -0.0147109600   -0.0001890600
  -0.0834352100   -0.0137643600    0.0000020900
  -0.8843048700    0.2441381700   -0.0000179700
   0.8891353800    0.2458295500   -0.0002190900
   0.0889728600   -0.0052451500    0.0020481400
  -0.0894773800   -0.0214225700   -0.0375649900
  -0.1068726300    0.0321133200   -0.0384625300
  -0.0036355500   -0.0054232000    0.0020784700
  -0.0291682700    0.0170693100   -0.0001404700
  -0.1086558000    0.1190391400   -0.0000025900
   0.0025947900    0.0162725000   -0.0001444300
   0.1171419300    0.1209149500    0.0020750000
  -0.0003716100   -0.1190345000   -0.0000904100

2    
 -0.0050000000000000   0.0086602540378444   0.0000000000000000
  -0.0536368000   -0.0481767700    0.0000000000
   0.2178308200   -0.4398965800   -0.0000000000
  -0.0297223300   -0.0438258500    0.0000000000
   0.0167052400   -0.0153580200    0.0000000000
   0.0376485500   -0.0277845800    0.0000000000
  -0.0348190100   -0.0505408200   -0.0000000000
   0.0330621100   -0.0527805400    0.0000000000
  -0.0118873800   -0.0241760600    0.0000000000
  -0.0566761000    0.0076990400    0.0000000000
   0.0343741600   -0.0233699400   -0.0000000000
   0.0083260800   -0.0346451100   -0.0000000000
   0.0258242500   -0.0268533600   -0.0000000000
   0.0047282100   -0.0272523400   -0.0000000000
  -0.0019068300   -0.0411708500   -0.0000000000
  -0.0115302500   -0.0273880600    0.0000000000
   0.0001906400   -0.0406796500   -0.0000000000
  -0.0300000800    0.0036154700    0.0000000000
   0.0076322700   -0.0922995000    0.0000000000
   0.0323801400   -0.0022842000    0.0000000000
  -0.0054637700   -0.0440237300    0.0000000000
   0.0072843400   -0.0283187500    0.0000000000
  -0.0012194500    0.0094613800    0.0000000000
  -0.0273114400    0.0014606500    0.0000000000
   0.0561500800   -0.1355251800    0.0000000000
  -0.1101721800   -0.1980105700   -0.0000000000
   0.1140020700   -0.1994372900    0.0000000000
  -0.0564075900   -0.1375045800    0.0000000000
   0.0252232400    0.0006445000   -0.0000000000
   0.0167870400    0.0325187000   -0.0000000000
  -0.0180111800    0.0318754000    0.0000000000
  -0.0868399000    0.1302869600   -0.0000000000
   0.0504764800    0.3981764900    0.0000000000