# Tetrahedron method
        0.0000000000        1.2169053687
        0.1000000000        1.2192107322
        0.2000000000        1.5780218139
        0.3000000000        3.3098130006
        0.4000000000        0.1364778051
        0.5000000000        0.1704227428
        0.6000000000        5.9146592084
        0.7000000000        0.0960013462
        0.8000000000        1.7138347199
        0.9000000000        2.8396959184
        1.0000000000        4.2182700564
        1.1000000000        3.4969318910
        1.2000000000        2.4870049810
        1.3000000000        1.8926490213
        1.4000000000        2.9484449699
        1.5000000000        1.0673675122
        1.6000000000        2.4034275633
        1.7000000000        3.1965992648
        1.8000000000        8.4168530537
        1.9000000000        1.8701764434
        2.0000000000        3.3412386385
        2.1000000000        2.1602261823
        2.2000000000        2.3652403705
        2.3000000000        2.5040670202
        2.4000000000        3.8893457822
        2.5000000000        2.5530304939
        2.6000000000        4.0380187288
        2.7000000000        3.3243236314
        2.8000000000        3.7016786213
        2.9000000000        4.1389331071
        3.0000000000        3.5362820031
        3.1000000000        3.7575819958
        3.2000000000        2.3260747934
        3.3000000000        3.6723590073
        3.4000000000        4.0222434877
        3.5000000000        4.6068473934
        3.6000000000        2.6648532779
        3.7000000000        3.6208708990
        3.8000000000        5.2160601217
        3.9000000000        3.3691600993
        4.0000000000        3.3308485056
        4.1000000000        6.7591202046
        4.2000000000        4.7862091945
        4.3000000000        4.8416288674
        4.4000000000        2.9116550311
        4.5000000000        4.7693801464
        4.6000000000        4.4430218847
        4.7000000000        2.5884137278
        4.8000000000        5.9397957406
        4.9000000000        3.8279905558
        5.0000000000        5.1384319283
        5.1000000000        4.1901669233
        5.2000000000        4.3161685880
        5.3000000000        2.2113413015
        5.4000000000        4.0278709774
        5.5000000000        6.7963768533
        5.6000000000        4.0059810617
        5.7000000000        6.7744384410
        5.8000000000        7.7499411795
        5.9000000000        6.3426248804
        6.0000000000        5.1454193845
        6.1000000000        4.9939565788
        6.2000000000        4.3866193336
        6.3000000000        6.8637301709
        6.4000000000        3.7857969234
        6.5000000000        3.6930334933
        6.6000000000        7.3716151282
        6.7000000000       11.8554091064
        6.8000000000        5.9863674958
        6.9000000000        6.5834937431
        7.0000000000       12.7517584366
        7.1000000000       10.8422407415
        7.2000000000        4.9932023408
        7.3000000000        4.0312839707
        7.4000000000        9.7556534041
        7.5000000000        8.0790493872
        7.6000000000        3.0354855630
        7.7000000000        8.4642993323
        7.8000000000       10.3698622002
        7.9000000000        8.6616028335
        8.0000000000        6.4461112691
        8.1000000000        5.1724418790
        8.2000000000        6.2331634303
        8.3000000000        7.5631573764
        8.4000000000       18.5567653392
        8.5000000000       17.6025132338
        8.6000000000       12.5858036898
        8.7000000000       14.2960461237
        8.8000000000       12.9864462583
        8.9000000000       15.9039540820
        9.0000000000       18.3880451136
        9.1000000000       17.0686951664
        9.2000000000       15.7813765892
        9.3000000000        8.7254869259
        9.4000000000       13.4284890881
        9.5000000000        3.3659482049
        9.6000000000        1.8496291244
        9.7000000000        1.7367757712
        9.8000000000        1.8589335666
        9.9000000000        1.6818268263
       10.0000000000        1.8196123183
       10.1000000000        3.0487724435
       10.2000000000        2.8205131424
       10.3000000000        0.6509822822
       10.4000000000        2.7532663532
       10.5000000000        2.8782721299
       10.6000000000        2.3690983325
       10.7000000000        1.6424024975
       10.8000000000        1.4471401171
       10.9000000000        1.9781888458
       11.0000000000        4.0600621762
       11.1000000000        2.9723547908
       11.2000000000        2.0526127823
       11.3000000000        1.8992189107
       11.4000000000        1.7364635732
       11.5000000000        2.0537331678
       11.6000000000        2.8496299253
       11.7000000000        2.7871993858
       11.8000000000        2.4679854319
       11.9000000000        2.5620104584
       12.0000000000        2.3381553569
       12.1000000000        3.4619925239
       12.2000000000        2.5656499575
       12.3000000000        6.4094448071
       12.4000000000        4.1961018053
       12.5000000000        3.2363045594
       12.6000000000        2.6766565726
       12.7000000000        2.6648658882
       12.8000000000        1.7538064702
       12.9000000000        3.1389693693
       13.0000000000        4.1860123762
       13.1000000000        4.3715471696
       13.2000000000        1.7401766588
       13.3000000000        2.6350063463
       13.4000000000        3.1292186728
       13.5000000000        2.7247388926
       13.6000000000        4.5867669174
       13.7000000000        4.0854666529
       13.8000000000        3.3679948064
       13.9000000000        3.0189135481
       14.0000000000        3.3989141075
       14.1000000000        4.1143112306
       14.2000000000        3.8847366812
       14.3000000000        4.0489816772
       14.4000000000        3.8035867773
       14.5000000000        5.0578258961
       14.6000000000        3.5919273711
       14.7000000000        3.4211212360
       14.8000000000        4.9871703700
       14.9000000000        3.9325686735
       15.0000000000        4.2784267433
       15.1000000000        3.8151663793
       15.2000000000        2.4409411494
       15.3000000000        3.6545679073
       15.4000000000        5.5416146525
       15.5000000000        7.3399123958
       15.6000000000        4.0540827802
       15.7000000000        4.7954044586
       15.8000000000        7.9293984187
       15.9000000000        4.4511899070
       16.0000000000        8.7060987614
       16.1000000000        6.3201238164
       16.2000000000       11.8877845617
       16.3000000000        4.8833817538
       16.4000000000        6.1298070560
       16.5000000000        5.3952930889
       16.6000000000        7.6586805011
       16.7000000000        6.6726411314
       16.8000000000        7.1824307721
       16.9000000000        6.6682322200
       17.0000000000        6.1662811427
       17.1000000000       12.2855607698
       17.2000000000        3.8740747156
       17.3000000000        5.8479686716
       17.4000000000        4.4223805104
       17.5000000000        3.9881684659
       17.6000000000        4.8969770059
       17.7000000000        4.7949799219
       17.8000000000        6.3524571529
       17.9000000000        7.4558344069
       18.0000000000        7.1418005503
       18.1000000000       10.5113415659
       18.2000000000       11.1404961648
       18.3000000000       18.0327541430
       18.4000000000       12.2904602746
       18.5000000000       11.7777555064
       18.6000000000       17.1923298221
       18.7000000000       12.5213978879
       18.8000000000       14.7081698666
       18.9000000000       28.8283457269
       19.0000000000       11.9973542764
       19.1000000000       21.2500490875
       19.2000000000        8.8713774754
       19.3000000000       12.9203025289
       19.4000000000       13.2060570631
       19.5000000000       11.9472049254
       19.6000000000       16.0617918507
       19.7000000000        8.5117591583
       19.8000000000       13.2356576624
       19.9000000000       10.0297415368
       20.0000000000        7.9081494928
       20.1000000000        9.3220254860
       20.2000000000       12.7416841728
       20.3000000000       18.0841102718
       20.4000000000       12.1790081983
       20.5000000000       11.7516113122
       20.6000000000       11.3204038822
       20.7000000000       11.2952345753
       20.8000000000       11.8333932970
       20.9000000000       10.5276988795
       21.0000000000        9.6699748529
       21.1000000000       10.4091319615
       21.2000000000       24.0561876145
       21.3000000000       10.3479034290
       21.4000000000        8.0385581300
       21.5000000000       11.9668067048
       21.6000000000       11.8087921924
       21.7000000000       14.0464512046
       21.8000000000       11.3545171355
       21.9000000000       12.9967726481
       22.0000000000        6.3011646763
       22.1000000000       12.7209833396
       22.2000000000        6.9747087805
       22.3000000000       12.7612586377
       22.4000000000       10.8182887659
       22.5000000000       12.1683244631
       22.6000000000        8.4328167366
       22.7000000000        8.3415806354
       22.8000000000       13.8958847343
       22.9000000000       11.0811140021
       23.0000000000       10.8969483505
       23.1000000000        8.2794604778
       23.2000000000        9.7869570269
       23.3000000000       10.9386417264
       23.4000000000        6.8961382763
       23.5000000000        7.8020987373
       23.6000000000        6.9435855578
       23.7000000000       17.7201102052
       23.8000000000        6.1398659586
       23.9000000000        5.9183285907
       24.0000000000        5.3365968741
       24.1000000000        4.9101362830
       24.2000000000        6.4860876546
       24.3000000000        3.6568315596
       24.4000000000        4.6251831364
       24.5000000000        4.0069620784
       24.6000000000        4.3645678179
       24.7000000000        3.8117749661
       24.8000000000        3.5031240668
       24.9000000000        2.6831212509
       25.0000000000        3.2836792002
       25.1000000000        3.1890030461
       25.2000000000        3.0567492446
       25.3000000000        2.3180904238
       25.4000000000        5.4886845726
       25.5000000000        2.3809193030
       25.6000000000        1.8295788986
       25.7000000000        1.8502275977
       25.8000000000        3.4260852566
       25.9000000000        1.5195829445
       26.0000000000        1.3897170821
       26.1000000000        0.9536498556
       26.2000000000        1.9975746928
       26.3000000000        3.7233485619
       26.4000000000        2.2102477192
       26.5000000000        2.3985285277
       26.6000000000        3.4666909704
       26.7000000000        2.3730436264
       26.8000000000        1.8774638321
       26.9000000000        2.4770766114
       27.0000000000        2.9428004463
       27.1000000000        2.3811702361
       27.2000000000        3.0145538913
       27.3000000000        2.9965772572
       27.4000000000        3.1059275148
       27.5000000000        2.4251274067
       27.6000000000        1.5420347188
       27.7000000000        1.5619423353
       27.8000000000        4.1671560284
       27.9000000000        1.9363550627
       28.0000000000        2.9321847248
       28.1000000000        3.5902623495
       28.2000000000        2.2694049291
       28.3000000000        2.2226228098
       28.4000000000        2.3247013026
       28.5000000000        2.9182979967
       28.6000000000        3.1536266908
       28.7000000000        4.6352658146
       28.8000000000        3.2972049773
       28.9000000000        3.0089083950
       29.0000000000        3.2833498243
       29.1000000000        3.4857696467
       29.2000000000        3.1412730126
       29.3000000000        4.3561910491
       29.4000000000        2.5354904682
       29.5000000000        5.2380905636
       29.6000000000        3.3692490626
       29.7000000000        2.9668137820
       29.8000000000        2.5835582256
       29.9000000000        5.3375411054
       30.0000000000        5.6389429932
       30.1000000000        3.8586116754
       30.2000000000        3.0374960724
       30.3000000000        4.6437527655
       30.4000000000        4.5205039986
       30.5000000000        4.0468968634
       30.6000000000       15.7448378513
       30.7000000000        3.9063517791
       30.8000000000        7.6010600571
       30.9000000000        5.3899523116
       31.0000000000        3.2656002112
       31.1000000000        7.5938361371
       31.2000000000        5.1991769155
       31.3000000000        9.3064358885
       31.4000000000        4.3969377278
       31.5000000000        3.9510967268
       31.6000000000        6.7574647956
       31.7000000000        6.2773563402
       31.8000000000        5.0826860565
       31.9000000000        6.7720889280
       32.0000000000        4.0057457146
       32.1000000000        2.6029134269
       32.2000000000        3.0736254514
       32.3000000000        3.6043011623
       32.4000000000        4.5594672090
       32.5000000000        3.8387483870
       32.6000000000        2.5612776982
       32.7000000000        3.4243114340
       32.8000000000        3.4310792636
       32.9000000000        1.1681811608
       33.0000000000        3.5247156665
       33.1000000000        5.0703576506
       33.2000000000        5.5882696210
       33.3000000000        4.4469886725
       33.4000000000        1.0362424320
       33.5000000000        1.0495107335
       33.6000000000        1.4312131739
       33.7000000000        4.0135880458
       33.8000000000        5.0934312855
       33.9000000000        2.1825466245
       34.0000000000        2.3229455572
       34.1000000000        0.0000000000
       34.2000000000        0.0000000000
       34.3000000000       20.5452883080
       34.4000000000        3.6156422904
       34.5000000000        1.9877789047
       34.6000000000        1.3533745385
       34.7000000000        5.5939999734
       34.8000000000        3.8267451305
       34.9000000000        6.8081405240
       35.0000000000        0.0000000000
       35.1000000000        4.2407455086
       35.2000000000        5.6358320060
       35.3000000000        0.0000000000
       35.4000000000        0.0000000000
       35.5000000000        1.7836017901
       35.6000000000        3.9574748190
       35.7000000000       11.6985475701
       35.8000000000        2.3486435355
       35.9000000000        4.9683490353
       36.0000000000       11.2160889559
       36.1000000000        3.3771094942
       36.2000000000        3.3264867496
       36.3000000000        2.5735281624
       36.4000000000        3.0097949985
       36.5000000000       12.3178348817
       36.6000000000        3.5298193000
       36.7000000000       12.6568597050
       36.8000000000        4.8169524908
       36.9000000000       12.7775287084
       37.0000000000       28.5798085931
       37.1000000000       23.5065792349
       37.2000000000       39.1757981582
       37.3000000000       25.7344916828
       37.4000000000       21.5169650610
       37.5000000000       22.9978061092
       37.6000000000       31.4603320058
       37.7000000000       19.8197654476
       37.8000000000       15.4805353712
       37.9000000000       16.8155300764
       38.0000000000       20.8452045607
       38.1000000000       12.3883081335
       38.2000000000       19.3964658349
       38.3000000000       11.0676419762
       38.4000000000       16.5716112950
       38.5000000000       11.3409607112
       38.6000000000       14.2387893495
       38.7000000000        9.6278100134
       38.8000000000       13.4144369965
       38.9000000000       13.1018925619
       39.0000000000       18.7544081432
       39.1000000000       10.7981210362
       39.2000000000       10.8358173486
       39.3000000000        9.0332419213
       39.4000000000        5.8360611584
       39.5000000000       10.1605681351
       39.6000000000        9.0027870935
       39.7000000000        7.5610984193
       39.8000000000        8.8472638540
       39.9000000000        9.0307373412
       40.0000000000        7.5810418988
