<?xml version="1.0" encoding="ISO-8859-1"?>
<modeling>
 <generator>
  <i name="program" type="string">vasp </i>
  <i name="version" type="string">5.4.4.18Apr17-6-g9f103f2a35  </i>
  <i name="subversion" type="string">(build Oct 18 2020 22:16:12) gamma-only         parallel </i>
  <i name="platform" type="string">UA-vaughan-2020a </i>
  <i name="date" type="string">2023 03 21 </i>
  <i name="time" type="string">21:27:51 </i>
 </generator>
 <incar>
  <i type="string" name="PREC">accurate</i>
  <i type="int" name="IALGO">    38</i>
  <i type="logical" name="ADDGRID"> T  </i>
  <i type="int" name="NELMIN">     5</i>
  <i type="int" name="IBRION">    -1</i>
  <i name="EDIFF">      0.00000001</i>
  <i name="EDIFFG">     -0.00000001</i>
  <i type="int" name="NSW">     0</i>
  <i type="int" name="ISIF">     2</i>
  <i name="ENCUT">    500.00000000</i>
  <i type="logical" name="LREAL"> F  </i>
  <i type="int" name="ISMEAR">     0</i>
  <i name="SIGMA">      0.01000000</i>
  <i type="logical" name="LWAVE"> F  </i>
  <i type="logical" name="LCHARG"> F  </i>
  <v type="int" name="KPOINT_BSE">    -1     0     0     0</v>
 </incar>
 <structure name="primitive_cell" >
  <crystal>
   <varray name="basis" >
    <v>      17.59966831       0.00000000       0.00000000 </v>
    <v>      -8.79983416      15.24175986       0.00000000 </v>
    <v>       0.00000000       0.00000000      19.92151445 </v>
   </varray>
   <i name="volume">   5343.94461817 </i>
   <varray name="rec_basis" >
    <v>       0.05681925       0.03280461       0.00000000 </v>
    <v>       0.00000000       0.06560922       0.00000000 </v>
    <v>       0.00000000       0.00000000       0.05019699 </v>
   </varray>
  </crystal>
  <varray name="positions" >
   <v>      -0.00056990       0.00005992      -0.50000000 </v>
   <v>      -0.09559153      -0.04686260      -0.50000000 </v>
   <v>       0.04629157      -0.04845614      -0.50000000 </v>
   <v>       0.04754270       0.09547788      -0.50000000 </v>
   <v>      -0.14173506       0.00214292      -0.50000000 </v>
   <v>       0.14259355       0.14244783      -0.50000000 </v>
   <v>       0.14164706      -0.00128105      -0.50000000 </v>
   <v>      -0.00222825      -0.14386507      -0.50000000 </v>
   <v>      -0.14440994      -0.14241310      -0.50000000 </v>
   <v>       0.00080792       0.14408264      -0.50000000 </v>
   <v>       0.18957833       0.09405657      -0.50000000 </v>
   <v>      -0.09417874       0.09719274      -0.50000000 </v>
   <v>      -0.09804946      -0.19102931      -0.50000000 </v>
   <v>      -0.23644228      -0.04431313      -0.50000000 </v>
   <v>      -0.23937155      -0.18870526      -0.50000000 </v>
   <v>       0.19048138       0.23782962      -0.50000000 </v>
   <v>       0.04582562      -0.19120635      -0.50000000 </v>
   <v>       0.18948291      -0.04886963      -0.50000000 </v>
   <v>       0.04854983       0.23934281      -0.50000000 </v>
   <v>      -0.28359367      -0.13861590      -0.50000000 </v>
   <v>       0.28470221       0.14112972      -0.50000000 </v>
   <v>      -0.14194737       0.14467669      -0.50000000 </v>
   <v>      -0.14938794      -0.28617460      -0.50000000 </v>
   <v>       0.14160898      -0.14408712      -0.50000000 </v>
   <v>       0.14372552       0.28645370      -0.50000000 </v>
   <v>      -0.28469345       0.00214292      -0.50000000 </v>
   <v>      -0.00292766      -0.28629482      -0.50000000 </v>
   <v>       0.28540977       0.28469374      -0.50000000 </v>
   <v>       0.00095476       0.28713011      -0.50000000 </v>
   <v>       0.28492260      -0.00158337      -0.50000000 </v>
   <v>      -0.29741032      -0.28373063      -0.50000000 </v>
   <v>      -0.09946280      -0.33311206      -0.50000000 </v>
   <v>       0.33234878       0.23634667      -0.50000000 </v>
   <v>      -0.23719996       0.09719274      -0.50000000 </v>
   <v>       0.33254182       0.09365506      -0.50000000 </v>
   <v>      -0.09437203       0.23982737      -0.50000000 </v>
   <v>      -0.24762082      -0.33289240      -0.50000000 </v>
   <v>      -0.37790513      -0.18870526      -0.50000000 </v>
   <v>       0.19188940       0.38184213      -0.50000000 </v>
   <v>       0.19009580      -0.19123697      -0.50000000 </v>
   <v>      -0.37984249      -0.04686260      -0.50000000 </v>
   <v>       0.04642473      -0.33314772      -0.50000000 </v>
   <v>       0.33352206       0.38013969      -0.50000000 </v>
   <v>       0.04871288       0.38232824      -0.50000000 </v>
   <v>       0.33307603      -0.04886963      -0.50000000 </v>
   <v>      -0.41489174      -0.28373063      -0.50000000 </v>
   <v>      -0.42657459      -0.14241310      -0.50000000 </v>
   <v>       0.42724431       0.28306005      -0.50000000 </v>
   <v>      -0.14538305      -0.42818375      -0.50000000 </v>
   <v>      -0.28529671       0.14408264      -0.50000000 </v>
   <v>      -0.28954788      -0.42784436      -0.50000000 </v>
   <v>       0.42785608       0.14112972      -0.50000000 </v>
   <v>      -0.14239608       0.28713011      -0.50000000 </v>
   <v>       0.14422690       0.42957551      -0.50000000 </v>
   <v>       0.28730213       0.42918005      -0.50000000 </v>
   <v>       0.14255519      -0.28631818      -0.50000000 </v>
   <v>       0.28573247      -0.14408712      -0.50000000 </v>
   <v>      -0.24098231      -0.47544567      -0.50000000 </v>
   <v>       0.47542646       0.23634667      -0.50000000 </v>
   <v>      -0.23777845       0.23934281      -0.50000000 </v>
   <v>       0.42797654       0.42569726      -0.50000000 </v>
   <v>      -0.42794161       0.00005992      -0.50000000 </v>
   <v>      -0.00071745      -0.42818538      -0.50000000 </v>
   <v>       0.00054479       0.42966101      -0.50000000 </v>
   <v>       0.42850047      -0.00128105      -0.50000000 </v>
   <v>      -0.43169127      -0.43481112      -0.50000000 </v>
   <v>       0.47472270       0.37801683      -0.50000000 </v>
   <v>      -0.09644208      -0.47523136      -0.50000000 </v>
   <v>      -0.38063624       0.09547788      -0.50000000 </v>
   <v>       0.47590681       0.09405657      -0.50000000 </v>
   <v>      -0.09495607       0.38232824      -0.50000000 </v>
   <v>      -0.38544126      -0.47853279      -0.50000000 </v>
   <v>       0.48615700      -0.33289240      -0.50000000 </v>
   <v>       0.47844872      -0.19102931      -0.50000000 </v>
   <v>       0.19263929      -0.47523136      -0.50000000 </v>
   <v>       0.33696521      -0.47544567      -0.50000000 </v>
   <v>       0.19185612      -0.33314772      -0.50000000 </v>
   <v>       0.33439660      -0.19120635      -0.50000000 </v>
   <v>       0.43464191      -0.28617460      -0.50000000 </v>
   <v>      -0.28669350       0.42918005      -0.50000000 </v>
   <v>      -0.42928746       0.28469374      -0.50000000 </v>
   <v>      -0.28584326       0.28645370      -0.50000000 </v>
   <v>       0.28862787      -0.42818375      -0.50000000 </v>
   <v>       0.28806142      -0.28629482      -0.50000000 </v>
   <v>       0.47668087      -0.04845614      -0.50000000 </v>
   <v>       0.47833704      -0.47853279      -0.50000000 </v>
   <v>       0.04810654      -0.47521548      -0.50000000 </v>
   <v>       0.43350828      -0.42784436      -0.49962381 </v>
   <v>       0.42979175      -0.14386507      -0.50000000 </v>
   <v>      -0.43085070       0.42569726      -0.50000000 </v>
   <v>      -0.14322281       0.42957551      -0.50000000 </v>
   <v>      -0.42871714       0.14244783      -0.50000000 </v>
   <v>       0.14396064      -0.42818538      -0.50000000 </v>
   <v>      -0.23861870       0.38184213      -0.50000000 </v>
   <v>      -0.38122319       0.23782962      -0.50000000 </v>
   <v>      -0.38195380       0.38013969      -0.50000000 </v>
   <v>       0.33777931      -0.33311206      -0.50000000 </v>
  </varray>
 </structure>
 <varray name="primitive_index" >
  <v type="int" >        1 </v>
  <v type="int" >       96 </v>
  <v type="int" >       90 </v>
  <v type="int" >       49 </v>
  <v type="int" >        7 </v>
  <v type="int" >        9 </v>
  <v type="int" >        2 </v>
  <v type="int" >       42 </v>
  <v type="int" >       48 </v>
  <v type="int" >        8 </v>
  <v type="int" >       50 </v>
  <v type="int" >       55 </v>
  <v type="int" >       89 </v>
  <v type="int" >       95 </v>
  <v type="int" >       88 </v>
  <v type="int" >       57 </v>
  <v type="int" >       83 </v>
  <v type="int" >       91 </v>
  <v type="int" >       56 </v>
  <v type="int" >       47 </v>
  <v type="int" >       10 </v>
  <v type="int" >       14 </v>
  <v type="int" >       41 </v>
  <v type="int" >       43 </v>
  <v type="int" >       16 </v>
  <v type="int" >        6 </v>
  <v type="int" >       35 </v>
  <v type="int" >       17 </v>
  <v type="int" >       15 </v>
  <v type="int" >        3 </v>
  <v type="int" >       40 </v>
  <v type="int" >       82 </v>
  <v type="int" >       58 </v>
  <v type="int" >       54 </v>
  <v type="int" >       51 </v>
  <v type="int" >       62 </v>
  <v type="int" >       81 </v>
  <v type="int" >       87 </v>
  <v type="int" >       64 </v>
  <v type="int" >       84 </v>
  <v type="int" >       94 </v>
  <v type="int" >       77 </v>
  <v type="int" >       65 </v>
  <v type="int" >       63 </v>
  <v type="int" >       92 </v>
  <v type="int" >       39 </v>
  <v type="int" >       46 </v>
  <v type="int" >       18 </v>
  <v type="int" >       34 </v>
  <v type="int" >       13 </v>
  <v type="int" >       33 </v>
  <v type="int" >       11 </v>
  <v type="int" >       21 </v>
  <v type="int" >       23 </v>
  <v type="int" >       24 </v>
  <v type="int" >       36 </v>
  <v type="int" >       44 </v>
  <v type="int" >       75 </v>
  <v type="int" >       59 </v>
  <v type="int" >       61 </v>
  <v type="int" >       25 </v>
  <v type="int" >        5 </v>
  <v type="int" >       29 </v>
  <v type="int" >       22 </v>
  <v type="int" >        4 </v>
  <v type="int" >       97 </v>
  <v type="int" >       66 </v>
  <v type="int" >       76 </v>
  <v type="int" >       53 </v>
  <v type="int" >       52 </v>
  <v type="int" >       69 </v>
  <v type="int" >       74 </v>
  <v type="int" >       80 </v>
  <v type="int" >       86 </v>
  <v type="int" >       71 </v>
  <v type="int" >       72 </v>
  <v type="int" >       78 </v>
  <v type="int" >       85 </v>
  <v type="int" >       38 </v>
  <v type="int" >       27 </v>
  <v type="int" >       19 </v>
  <v type="int" >       20 </v>
  <v type="int" >       31 </v>
  <v type="int" >       37 </v>
  <v type="int" >       93 </v>
  <v type="int" >       73 </v>
  <v type="int" >       70 </v>
  <v type="int" >       32 </v>
  <v type="int" >       45 </v>
  <v type="int" >       26 </v>
  <v type="int" >       28 </v>
  <v type="int" >       12 </v>
  <v type="int" >       30 </v>
  <v type="int" >       68 </v>
  <v type="int" >       60 </v>
  <v type="int" >       67 </v>
  <v type="int" >       79 </v>
 </varray>
 <kpoints>
  <generation param="Gamma">
   <v type="int" name="divisions">       1        1        1 </v>
   <v name="usershift">      0.00000000       0.00000000       0.00000000 </v>
   <v name="genvec1">      1.00000000      -0.00000000       0.00000000 </v>
   <v name="genvec2">      0.00000000       1.00000000       0.00000000 </v>
   <v name="genvec3">      0.00000000       0.00000000       1.00000000 </v>
   <v name="shift">      0.00000000       0.00000000       0.00000000 </v>
  </generation>
  <varray name="kpointlist" >
   <v>       0.00000000       0.00000000       0.00000000 </v>
  </varray>
  <varray name="weights" >
   <v>       1.00000000 </v>
  </varray>
 </kpoints>
 <parameters>
  <separator name="general" >
   <i type="string" name="SYSTEM">unknown system</i>
   <i type="logical" name="LCOMPAT"> F  </i>
  </separator>
  <separator name="electronic" >
   <i type="string" name="PREC">accura</i>
   <i name="ENMAX">    500.00000000</i>
   <i name="ENAUG">    644.87300000</i>
   <i name="EDIFF">      0.00000001</i>
   <i type="int" name="IALGO">    38</i>
   <i type="int" name="IWAVPR">    10</i>
   <i type="int" name="NBANDS">   244</i>
   <i name="NELECT">    388.00000000</i>
   <i type="int" name="TURBO">     0</i>
   <i type="int" name="IRESTART">     0</i>
   <i type="int" name="NREBOOT">     0</i>
   <i type="int" name="NMIN">     0</i>
   <i name="EREF">      0.00000000</i>
   <separator name="electronic smearing" >
    <i type="int" name="ISMEAR">     0</i>
    <i name="SIGMA">      0.01000000</i>
    <i name="KSPACING">      0.50000000</i>
    <i type="logical" name="KGAMMA"> T  </i>
   </separator>
   <separator name="electronic projectors" >
    <i type="logical" name="LREAL"> F  </i>
    <v name="ROPT">      0.00000000      0.00000000      0.00000000</v>
    <i type="int" name="LMAXPAW">  -100</i>
    <i type="int" name="LMAXMIX">     2</i>
    <i type="logical" name="NLSPLINE"> F  </i>
   </separator>
   <separator name="electronic startup" >
    <i type="int" name="ISTART">     0</i>
    <i type="int" name="ICHARG">     2</i>
    <i type="int" name="INIWAV">     1</i>
   </separator>
   <separator name="electronic spin" >
    <i type="int" name="ISPIN">     1</i>
    <i type="logical" name="LNONCOLLINEAR"> F  </i>
    <v name="MAGMOM">      1.00000000      1.00000000      1.00000000      1.00000000      1.00000000      1.00000000      1.00000000      1.00000000      1.00000000      1.00000000      1.00000000      1.00000000      1.00000000      1.00000000      1.00000000      1.00000000      1.00000000      1.00000000      1.00000000      1.00000000
      1.00000000      1.00000000      1.00000000      1.00000000      1.00000000      1.00000000      1.00000000      1.00000000      1.00000000      1.00000000      1.00000000      1.00000000      1.00000000      1.00000000      1.00000000      1.00000000      1.00000000      1.00000000      1.00000000      1.00000000
      1.00000000      1.00000000      1.00000000      1.00000000      1.00000000      1.00000000      1.00000000      1.00000000      1.00000000      1.00000000      1.00000000      1.00000000      1.00000000      1.00000000      1.00000000      1.00000000      1.00000000      1.00000000      1.00000000      1.00000000
      1.00000000      1.00000000      1.00000000      1.00000000      1.00000000      1.00000000      1.00000000      1.00000000      1.00000000      1.00000000      1.00000000      1.00000000      1.00000000      1.00000000      1.00000000      1.00000000      1.00000000      1.00000000      1.00000000      1.00000000
      1.00000000      1.00000000      1.00000000      1.00000000      1.00000000      1.00000000      1.00000000      1.00000000      1.00000000      1.00000000      1.00000000      1.00000000      1.00000000      1.00000000      1.00000000      1.00000000      1.00000000</v>
    <i name="NUPDOWN">     -1.00000000</i>
    <i type="logical" name="LSORBIT"> F  </i>
    <v name="SAXIS">      0.00000000      0.00000000      1.00000000</v>
    <i type="logical" name="LSPIRAL"> F  </i>
    <v name="QSPIRAL">      0.00000000      0.00000000      0.00000000</v>
    <i type="logical" name="LZEROZ"> F  </i>
   </separator>
   <separator name="electronic exchange-correlation" >
    <i type="logical" name="LASPH"> F  </i>
    <i type="logical" name="LMETAGGA"> F  </i>
   </separator>
   <separator name="electronic convergence" >
    <i type="int" name="NELM">    60</i>
    <i type="int" name="NELMDL">    -5</i>
    <i type="int" name="NELMIN">     5</i>
    <i name="ENINI">    500.00000000</i>
    <separator name="electronic convergence detail" >
     <i type="logical" name="LDIAG"> T  </i>
     <i type="logical" name="LSUBROT"> F  </i>
     <i name="WEIMIN">      0.00000000</i>
     <i name="EBREAK">      0.00000000</i>
     <i name="DEPER">      0.30000000</i>
     <i type="int" name="NRMM">     4</i>
     <i name="TIME">      0.40000000</i>
    </separator>
   </separator>
   <separator name="electronic mixer" >
    <i name="AMIX">      0.40000000</i>
    <i name="BMIX">      1.00000000</i>
    <i name="AMIN">      0.10000000</i>
    <i name="AMIX_MAG">      1.60000000</i>
    <i name="BMIX_MAG">      1.00000000</i>
    <separator name="electronic mixer details" >
     <i type="int" name="IMIX">     4</i>
     <i type="logical" name="MIXFIRST"> F  </i>
     <i type="int" name="MAXMIX">   -45</i>
     <i name="WC">    100.00000000</i>
     <i type="int" name="INIMIX">     1</i>
     <i type="int" name="MIXPRE">     1</i>
     <i type="int" name="MREMOVE">     5</i>
    </separator>
   </separator>
   <separator name="electronic dipolcorrection" >
    <i type="logical" name="LDIPOL"> F  </i>
    <i type="logical" name="LMONO"> F  </i>
    <i type="int" name="IDIPOL">     0</i>
    <i name="EPSILON">      1.00000000</i>
    <v name="DIPOL">   -100.00000000   -100.00000000   -100.00000000</v>
    <i name="EFIELD">      0.00000000</i>
   </separator>
  </separator>
  <separator name="grids" >
   <i type="int" name="NGX">   128</i>
   <i type="int" name="NGY">   128</i>
   <i type="int" name="NGZ">   150</i>
   <i type="int" name="NGXF">   256</i>
   <i type="int" name="NGYF">   256</i>
   <i type="int" name="NGZF">   300</i>
   <i type="logical" name="ADDGRID"> T  </i>
  </separator>
  <separator name="ionic" >
   <i type="int" name="NSW">     0</i>
   <i type="int" name="IBRION">    -1</i>
   <i type="int" name="MDALGO">     0</i>
   <i type="int" name="ISIF">     2</i>
   <i name="PSTRESS">      0.00000000</i>
   <i name="EDIFFG">     -0.00000001</i>
   <i type="int" name="NFREE">     0</i>
   <i name="POTIM">      0.50000000</i>
   <i name="SMASS">     -3.00000000</i>
   <i name="SCALEE">      1.00000000</i>
  </separator>
  <separator name="ionic md" >
   <i name="TEBEG">      0.00010000</i>
   <i name="TEEND">      0.00010000</i>
   <i type="int" name="NBLOCK">     1</i>
   <i type="int" name="KBLOCK">     1</i>
   <i type="int" name="NPACO">   256</i>
   <i name="APACO">     16.00000000</i>
  </separator>
  <separator name="symmetry" >
   <i type="int" name="ISYM">     2</i>
   <i name="SYMPREC">      0.00001000</i>
  </separator>
  <separator name="dos" >
   <i type="int" name="LORBIT">     0</i>
   <v name="RWIGS">     -1.00000000     -1.00000000     -1.00000000</v>
   <i type="int" name="NEDOS">   301</i>
   <i name="EMIN">     10.00000000</i>
   <i name="EMAX">    -10.00000000</i>
   <i name="EFERMI">      0.00000000</i>
  </separator>
  <separator name="writing" >
   <i type="int" name="NWRITE">     2</i>
   <i type="logical" name="LWAVE"> F  </i>
   <i type="logical" name="LDOWNSAMPLE"> F  </i>
   <i type="logical" name="LCHARG"> F  </i>
   <i type="logical" name="LPARD"> F  </i>
   <i type="logical" name="LVTOT"> F  </i>
   <i type="logical" name="LVHAR"> F  </i>
   <i type="logical" name="LELF"> F  </i>
   <i type="logical" name="LOPTICS"> F  </i>
   <v name="STM">      0.00000000      0.00000000      0.00000000      0.00000000      0.00000000      0.00000000      0.00000000</v>
  </separator>
  <separator name="performance" >
   <i type="int" name="NPAR">     4</i>
   <i type="int" name="NSIM">     4</i>
   <i type="int" name="NBLK">    -1</i>
   <i type="logical" name="LPLANE"> T  </i>
   <i type="logical" name="LSCALAPACK"> T  </i>
   <i type="logical" name="LSCAAWARE"> F  </i>
   <i type="logical" name="LSCALU"> F  </i>
   <i type="logical" name="LASYNC"> F  </i>
   <i type="logical" name="LORBITALREAL"> F  </i>
  </separator>
  <separator name="miscellaneous" >
   <i type="int" name="IDIOT">     3</i>
   <i type="int" name="ISPECIAL">     0</i>
   <i type="logical" name="LMUSIC"> F  </i>
   <v name="POMASS">     10.81100000     14.00100000     12.01100000</v>
   <v name="DARWINR">      0.00000000      0.00000000      0.00000000</v>
   <v name="DARWINV">      1.00000000      1.00000000      1.00000000</v>
   <i type="logical" name="LCORR"> T  </i>
  </separator>
  <i type="logical" name="GGA_COMPAT"> T  </i>
  <i type="logical" name="LBERRY"> F  </i>
  <i type="int" name="ICORELEVEL">     0</i>
  <i type="logical" name="LDAU"> F  </i>
  <i type="int" name="I_CONSTRAINED_M">     0</i>
  <separator name="electronic exchange-correlation" >
   <i type="string" name="GGA">--</i>
   <i type="int" name="VOSKOWN">     0</i>
   <i type="logical" name="LHFCALC"> F  </i>
   <i type="string" name="PRECFOCK"></i>
   <i type="logical" name="LSYMGRAD"> F  </i>
   <i type="logical" name="LHFONE"> F  </i>
   <i type="logical" name="LRHFCALC"> F  </i>
   <i type="logical" name="LTHOMAS"> F  </i>
   <i type="logical" name="LMODELHF"> F  </i>
   <i name="ENCUT4O">     -1.00000000</i>
   <i type="int" name="EXXOEP">     0</i>
   <i type="int" name="FOURORBIT">     0</i>
   <i name="AEXX">      0.00000000</i>
   <i name="HFALPHA">      0.00000000</i>
   <i name="MCALPHA">      0.00000000</i>
   <i name="ALDAX">      1.00000000</i>
   <i name="AGGAX">      1.00000000</i>
   <i name="ALDAC">      1.00000000</i>
   <i name="AGGAC">      1.00000000</i>
   <i type="int" name="NKREDX">     1</i>
   <i type="int" name="NKREDY">     1</i>
   <i type="int" name="NKREDZ">     1</i>
   <i type="logical" name="SHIFTRED"> F  </i>
   <i type="logical" name="ODDONLY"> F  </i>
   <i type="logical" name="EVENONLY"> F  </i>
   <i type="int" name="LMAXFOCK">     0</i>
   <i type="int" name="NMAXFOCKAE">     0</i>
   <i type="logical" name="LFOCKAEDFT"> F  </i>
   <i name="HFSCREEN">      0.00000000</i>
   <i name="HFSCREENC">      0.00000000</i>
   <i type="int" name="NBANDSGWLOW">     0</i>
  </separator>
  <separator name="vdW DFT" >
   <i type="logical" name="LUSE_VDW"> F  </i>
   <i name="Zab_VDW">     -0.84910000</i>
   <i name="PARAM1">      0.12340000</i>
   <i name="PARAM2">      1.00000000</i>
   <i name="PARAM3">      0.00000000</i>
  </separator>
  <separator name="model GW" >
   <i type="int" name="MODEL_GW">     0</i>
   <i name="MODEL_EPS0">     33.05532754</i>
   <i name="MODEL_ALPHA">      1.00000000</i>
  </separator>
  <separator name="linear response parameters" >
   <i type="logical" name="LEPSILON"> F  </i>
   <i type="logical" name="LRPA"> F  </i>
   <i type="logical" name="LNABLA"> F  </i>
   <i type="logical" name="LVEL"> F  </i>
   <i type="int" name="KINTER">     0</i>
   <i name="CSHIFT">      0.10000000</i>
   <i name="OMEGAMAX">     -1.00000000</i>
   <i name="DEG_THRESHOLD">      0.00200000</i>
   <i name="RTIME">     -0.10000000</i>
   <i name="WPLASMAI">      0.00000000</i>
   <v name="DFIELD">      0.00000000      0.00000000      0.00000000</v>
   <v name="WPLASMA">      0.00000000      0.00000000      0.00000000      0.00000000      0.00000000      0.00000000      0.00000000      0.00000000      0.00000000</v>
  </separator>
  <separator name="orbital magnetization" >
   <i type="logical" name="NUCIND"> F  </i>
   <v name="MAGPOS">      0.00000000      0.00000000      0.00000000</v>
   <i type="logical" name="LNICSALL"> T  </i>
   <i type="logical" name="ORBITALMAG"> F  </i>
   <i type="logical" name="LMAGBLOCH"> F  </i>
   <i type="logical" name="LCHIMAG"> F  </i>
   <i type="logical" name="LGAUGE"> T  </i>
   <i type="int" name="MAGATOM">     0</i>
   <v name="MAGDIPOL">      0.00000000      0.00000000      0.00000000</v>
   <v name="AVECCONST">      0.00000000      0.00000000      0.00000000</v>
  </separator>
  <separator name="response functions" >
   <i type="logical" name="LADDER"> F  </i>
   <i type="logical" name="LRPAFORCE"> F  </i>
   <i type="logical" name="LFXC"> F  </i>
   <i type="logical" name="LHARTREE"> T  </i>
   <i type="int" name="IBSE">     0</i>
   <v type="int" name="KPOINT">    -1     0     0     0</v>
   <i type="logical" name="LTCTE"> F  </i>
   <i type="logical" name="LTETE"> F  </i>
   <i type="logical" name="LTRIPLET"> F  </i>
   <i type="logical" name="LFXCEPS"> F  </i>
   <i type="logical" name="LFXHEG"> F  </i>
   <i type="int" name="NATURALO">     2</i>
   <i type="logical" name="L2ORDER"> F  </i>
   <i type="logical" name="LMP2LT"> F  </i>
   <i type="logical" name="LUSEW"> F  </i>
   <i name="ENCUTGW">     -2.00000000</i>
   <i name="ENCUTGWSOFT">     -2.00000000</i>
   <i name="ENCUTLF">     -1.00000000</i>
   <i type="int" name="LMAXMP2">    -1</i>
   <i name="SCISSOR">      0.00000000</i>
   <i type="int" name="NOMEGA">     0</i>
   <i type="int" name="NOMEGAR">     0</i>
   <i type="int" name="NBANDSGW">    -1</i>
   <i type="int" name="NBANDSO">    -1</i>
   <i type="int" name="NBANDSV">    -1</i>
   <i type="int" name="NELM">     1</i>
   <i type="int" name="NELMHF">     1</i>
   <i type="int" name="DIM">     3</i>
   <i type="int" name="ANTIRES">     0</i>
   <i name="OMEGAMAX">    -30.00000000</i>
   <i name="OMEGAMIN">    -30.00000000</i>
   <i name="OMEGATL">   -200.00000000</i>
   <i type="int" name="OMEGAGRID">   140</i>
   <i name="CSHIFT">     -0.10000000</i>
   <i type="logical" name="SELFENERGY"> F  </i>
   <i type="logical" name="LSPECTRAL"> F  </i>
   <i type="logical" name="LSPECTRALGW"> F  </i>
   <i type="logical" name="LSINGLES"> F  </i>
   <i type="logical" name="LFERMIGW"> F  </i>
   <i type="logical" name="ODDONLYGW"> F  </i>
   <i type="logical" name="EVENONLYGW"> F  </i>
   <i type="int" name="NKREDLFX">     1</i>
   <i type="int" name="NKREDLFY">     1</i>
   <i type="int" name="NKREDLFZ">     1</i>
   <i type="int" name="MAXMEM">  2800</i>
   <i type="int" name="TELESCOPE">     0</i>
   <i type="int" name="TAUPAR">     1</i>
   <i type="int" name="OMEGAPAR">    -1</i>
   <i name="LAMBDA">      1.00000000</i>
  </separator>
  <separator name="External order field" >
   <i name="OFIELD_KAPPA">      0.00000000</i>
   <v name="OFIELD_K">      0.00000000      0.00000000      0.00000000</v>
   <i name="OFIELD_Q6_NEAR">      0.00000000</i>
   <i name="OFIELD_Q6_FAR">      0.00000000</i>
   <i name="OFIELD_A">      0.00000000</i>
  </separator>
 </parameters>
 <atominfo>
  <atoms>      97 </atoms>
  <types>       3 </types>
  <array name="atoms" >
   <dimension dim="1">ion</dimension>
   <field type="string">element</field>
   <field type="int">atomtype</field>
   <set>
    <rc><c>B </c><c>   1</c></rc>
    <rc><c>B </c><c>   1</c></rc>
    <rc><c>B </c><c>   1</c></rc>
    <rc><c>B </c><c>   1</c></rc>
    <rc><c>B </c><c>   1</c></rc>
    <rc><c>B </c><c>   1</c></rc>
    <rc><c>B </c><c>   1</c></rc>
    <rc><c>B </c><c>   1</c></rc>
    <rc><c>B </c><c>   1</c></rc>
    <rc><c>B </c><c>   1</c></rc>
    <rc><c>B </c><c>   1</c></rc>
    <rc><c>B </c><c>   1</c></rc>
    <rc><c>B </c><c>   1</c></rc>
    <rc><c>B </c><c>   1</c></rc>
    <rc><c>B </c><c>   1</c></rc>
    <rc><c>B </c><c>   1</c></rc>
    <rc><c>B </c><c>   1</c></rc>
    <rc><c>B </c><c>   1</c></rc>
    <rc><c>B </c><c>   1</c></rc>
    <rc><c>B </c><c>   1</c></rc>
    <rc><c>B </c><c>   1</c></rc>
    <rc><c>B </c><c>   1</c></rc>
    <rc><c>B </c><c>   1</c></rc>
    <rc><c>B </c><c>   1</c></rc>
    <rc><c>B </c><c>   1</c></rc>
    <rc><c>B </c><c>   1</c></rc>
    <rc><c>B </c><c>   1</c></rc>
    <rc><c>B </c><c>   1</c></rc>
    <rc><c>B </c><c>   1</c></rc>
    <rc><c>B </c><c>   1</c></rc>
    <rc><c>B </c><c>   1</c></rc>
    <rc><c>B </c><c>   1</c></rc>
    <rc><c>B </c><c>   1</c></rc>
    <rc><c>B </c><c>   1</c></rc>
    <rc><c>B </c><c>   1</c></rc>
    <rc><c>B </c><c>   1</c></rc>
    <rc><c>B </c><c>   1</c></rc>
    <rc><c>B </c><c>   1</c></rc>
    <rc><c>B </c><c>   1</c></rc>
    <rc><c>B </c><c>   1</c></rc>
    <rc><c>B </c><c>   1</c></rc>
    <rc><c>B </c><c>   1</c></rc>
    <rc><c>B </c><c>   1</c></rc>
    <rc><c>B </c><c>   1</c></rc>
    <rc><c>B </c><c>   1</c></rc>
    <rc><c>B </c><c>   1</c></rc>
    <rc><c>B </c><c>   1</c></rc>
    <rc><c>B </c><c>   1</c></rc>
    <rc><c>N </c><c>   2</c></rc>
    <rc><c>N </c><c>   2</c></rc>
    <rc><c>N </c><c>   2</c></rc>
    <rc><c>N </c><c>   2</c></rc>
    <rc><c>N </c><c>   2</c></rc>
    <rc><c>N </c><c>   2</c></rc>
    <rc><c>N </c><c>   2</c></rc>
    <rc><c>N </c><c>   2</c></rc>
    <rc><c>N </c><c>   2</c></rc>
    <rc><c>N </c><c>   2</c></rc>
    <rc><c>N </c><c>   2</c></rc>
    <rc><c>N </c><c>   2</c></rc>
    <rc><c>N </c><c>   2</c></rc>
    <rc><c>N </c><c>   2</c></rc>
    <rc><c>N </c><c>   2</c></rc>
    <rc><c>N </c><c>   2</c></rc>
    <rc><c>N </c><c>   2</c></rc>
    <rc><c>N </c><c>   2</c></rc>
    <rc><c>N </c><c>   2</c></rc>
    <rc><c>N </c><c>   2</c></rc>
    <rc><c>N </c><c>   2</c></rc>
    <rc><c>N </c><c>   2</c></rc>
    <rc><c>N </c><c>   2</c></rc>
    <rc><c>N </c><c>   2</c></rc>
    <rc><c>N </c><c>   2</c></rc>
    <rc><c>N </c><c>   2</c></rc>
    <rc><c>N </c><c>   2</c></rc>
    <rc><c>N </c><c>   2</c></rc>
    <rc><c>N </c><c>   2</c></rc>
    <rc><c>N </c><c>   2</c></rc>
    <rc><c>N </c><c>   2</c></rc>
    <rc><c>N </c><c>   2</c></rc>
    <rc><c>N </c><c>   2</c></rc>
    <rc><c>N </c><c>   2</c></rc>
    <rc><c>N </c><c>   2</c></rc>
    <rc><c>N </c><c>   2</c></rc>
    <rc><c>N </c><c>   2</c></rc>
    <rc><c>N </c><c>   2</c></rc>
    <rc><c>N </c><c>   2</c></rc>
    <rc><c>N </c><c>   2</c></rc>
    <rc><c>N </c><c>   2</c></rc>
    <rc><c>N </c><c>   2</c></rc>
    <rc><c>N </c><c>   2</c></rc>
    <rc><c>N </c><c>   2</c></rc>
    <rc><c>N </c><c>   2</c></rc>
    <rc><c>N </c><c>   2</c></rc>
    <rc><c>N </c><c>   2</c></rc>
    <rc><c>N </c><c>   2</c></rc>
    <rc><c>C </c><c>   3</c></rc>
   </set>
  </array>
  <array name="atomtypes" >
   <dimension dim="1">type</dimension>
   <field type="int">atomspertype</field>
   <field type="string">element</field>
   <field>mass</field>
   <field>valence</field>
   <field type="string">pseudopotential</field>
   <set>
    <rc><c>  48</c><c>B </c><c>     10.81100000</c><c>      3.00000000</c><c>  PAW_PBE B 06Sep2000                   </c></rc>
    <rc><c>  48</c><c>N </c><c>     14.00100000</c><c>      5.00000000</c><c>  PAW_PBE N 08Apr2002                   </c></rc>
    <rc><c>   1</c><c>C </c><c>     12.01100000</c><c>      4.00000000</c><c>  PAW_PBE C 08Apr2002                   </c></rc>
   </set>
  </array>
 </atominfo>
 <structure name="initialpos" >
  <crystal>
   <varray name="basis" >
    <v>      17.59966831       0.00000000       0.00000000 </v>
    <v>      -8.79983416      15.24175986       0.00000000 </v>
    <v>       0.00000000       0.00000000      19.92151445 </v>
   </varray>
   <i name="volume">   5343.94461817 </i>
   <varray name="rec_basis" >
    <v>       0.05681925       0.03280461       0.00000000 </v>
    <v>       0.00000000       0.06560922       0.00000000 </v>
    <v>       0.00000000       0.00000000       0.05019699 </v>
   </varray>
  </crystal>
  <varray name="positions" >
   <v>       0.99943010       0.00005992       0.50000000 </v>
   <v>       0.14164706       0.99871895       0.50000000 </v>
   <v>       0.28492260       0.99841663       0.50000000 </v>
   <v>       0.42850047       0.99871895       0.50000000 </v>
   <v>       0.57205839       0.00005992       0.50000000 </v>
   <v>       0.71530655       0.00214292       0.50000000 </v>
   <v>       0.85826494       0.00214292       0.50000000 </v>
   <v>       0.00080792       0.14408264       0.50000000 </v>
   <v>       0.14259355       0.14244783       0.50000000 </v>
   <v>       0.28470221       0.14112972       0.50000000 </v>
   <v>       0.42785608       0.14112972       0.50000000 </v>
   <v>       0.57128286       0.14244783       0.50000000 </v>
   <v>       0.71470329       0.14408264       0.50000000 </v>
   <v>       0.85805263       0.14467669       0.50000000 </v>
   <v>       0.00095476       0.28713011       0.50000000 </v>
   <v>       0.14372552       0.28645370       0.50000000 </v>
   <v>       0.28540977       0.28469374       0.50000000 </v>
   <v>       0.42724431       0.28306005       0.50000000 </v>
   <v>       0.57071254       0.28469374       0.50000000 </v>
   <v>       0.71415674       0.28645370       0.50000000 </v>
   <v>       0.85760392       0.28713011       0.50000000 </v>
   <v>       0.00054479       0.42966101       0.50000000 </v>
   <v>       0.14422690       0.42957551       0.50000000 </v>
   <v>       0.28730213       0.42918005       0.50000000 </v>
   <v>       0.42797654       0.42569726       0.50000000 </v>
   <v>       0.56914930       0.42569726       0.50000000 </v>
   <v>       0.71330650       0.42918005       0.50000000 </v>
   <v>       0.85677719       0.42957551       0.50000000 </v>
   <v>       0.99928255       0.57181462       0.50000000 </v>
   <v>       0.14396064       0.57181462       0.50000000 </v>
   <v>       0.28862787       0.57181625       0.50000000 </v>
   <v>       0.43350828       0.57215564       0.50037619 </v>
   <v>       0.71045212       0.57215564       0.50000000 </v>
   <v>       0.85461695       0.57181625       0.50000000 </v>
   <v>       0.99707234       0.71370518       0.50000000 </v>
   <v>       0.14255519       0.71368182       0.50000000 </v>
   <v>       0.28806142       0.71370518       0.50000000 </v>
   <v>       0.43464191       0.71382540       0.50000000 </v>
   <v>       0.58510826       0.71626937       0.50000000 </v>
   <v>       0.70258968       0.71626937       0.50000000 </v>
   <v>       0.85061206       0.71382540       0.50000000 </v>
   <v>       0.99777175       0.85613493       0.50000000 </v>
   <v>       0.14160898       0.85591288       0.50000000 </v>
   <v>       0.28573247       0.85591288       0.50000000 </v>
   <v>       0.42979175       0.85613493       0.50000000 </v>
   <v>       0.57342541       0.85758690       0.50000000 </v>
   <v>       0.71640633       0.86138410       0.50000000 </v>
   <v>       0.85559006       0.85758690       0.50000000 </v>
   <v>       0.04754270       0.09547788       0.50000000 </v>
   <v>       0.18957833       0.09405657       0.50000000 </v>
   <v>       0.33254182       0.09365506       0.50000000 </v>
   <v>       0.47590681       0.09405657       0.50000000 </v>
   <v>       0.61936376       0.09547788       0.50000000 </v>
   <v>       0.76280004       0.09719274       0.50000000 </v>
   <v>       0.90582126       0.09719274       0.50000000 </v>
   <v>       0.04854983       0.23934281       0.50000000 </v>
   <v>       0.19048138       0.23782962       0.50000000 </v>
   <v>       0.33234878       0.23634667       0.50000000 </v>
   <v>       0.47542646       0.23634667       0.50000000 </v>
   <v>       0.61877681       0.23782962       0.50000000 </v>
   <v>       0.76222155       0.23934281       0.50000000 </v>
   <v>       0.90562797       0.23982737       0.50000000 </v>
   <v>       0.04871288       0.38232824       0.50000000 </v>
   <v>       0.19188940       0.38184213       0.50000000 </v>
   <v>       0.33352206       0.38013969       0.50000000 </v>
   <v>       0.47472270       0.37801683       0.50000000 </v>
   <v>       0.61804620       0.38013969       0.50000000 </v>
   <v>       0.76138130       0.38184213       0.50000000 </v>
   <v>       0.90504393       0.38232824       0.50000000 </v>
   <v>       0.04810654       0.52478452       0.50000000 </v>
   <v>       0.19263929       0.52476864       0.50000000 </v>
   <v>       0.33696521       0.52455433       0.50000000 </v>
   <v>       0.47833704       0.52146721       0.50000000 </v>
   <v>       0.61455874       0.52146721       0.50000000 </v>
   <v>       0.75901769       0.52455433       0.50000000 </v>
   <v>       0.90355792       0.52476864       0.50000000 </v>
   <v>       0.04642473       0.66685228       0.50000000 </v>
   <v>       0.19185612       0.66685228       0.50000000 </v>
   <v>       0.33777931       0.66688794       0.50000000 </v>
   <v>       0.48615700       0.66710760       0.50000000 </v>
   <v>       0.75237918       0.66710760       0.50000000 </v>
   <v>       0.90053720       0.66688794       0.50000000 </v>
   <v>       0.04582562       0.80879365       0.50000000 </v>
   <v>       0.19009580       0.80876303       0.50000000 </v>
   <v>       0.33439660       0.80879365       0.50000000 </v>
   <v>       0.47844872       0.80897069       0.50000000 </v>
   <v>       0.62209487       0.81129474       0.50000000 </v>
   <v>       0.76062845       0.81129474       0.50000000 </v>
   <v>       0.90195054       0.80897069       0.50000000 </v>
   <v>       0.04629157       0.95154386       0.50000000 </v>
   <v>       0.18948291       0.95113037       0.50000000 </v>
   <v>       0.33307603       0.95113037       0.50000000 </v>
   <v>       0.47668087       0.95154386       0.50000000 </v>
   <v>       0.62015751       0.95313740       0.50000000 </v>
   <v>       0.76355772       0.95568687       0.50000000 </v>
   <v>       0.90440847       0.95313740       0.50000000 </v>
   <v>       0.56830873       0.56518888       0.50000000 </v>
  </varray>
 </structure>
 <calculation>
  <scstep>
   <time name="dav">    2.37    2.39</time>
   <time name="total">    2.74    2.84</time>
   <energy>
    <i name="alphaZ">    156.50993408 </i>
    <i name="ewald">  58206.74000973 </i>
    <i name="hartreedc"> -70374.15453925 </i>
    <i name="XCdc">   1302.10896433 </i>
    <i name="pawpsdc">  12033.28670802 </i>
    <i name="pawaedc"> -12049.96799276 </i>
    <i name="eentropy">     -0.00000000 </i>
    <i name="bandstr">   -904.52593456 </i>
    <i name="atom">  16260.93880140 </i>
    <i name="e_fr_energy">   4630.93595098 </i>
    <i name="e_wo_entrp">   4630.93595098 </i>
    <i name="e_0_energy">   4630.93595098 </i>
   </energy>
  </scstep>
  <scstep>
   <time name="dav">    2.99    3.03</time>
   <time name="total">    2.99    3.03</time>
   <energy>
    <i name="e_fr_energy">    216.72569952 </i>
    <i name="e_wo_entrp">    216.72569952 </i>
    <i name="e_0_energy">    216.72569952 </i>
   </energy>
  </scstep>
  <scstep>
   <time name="dav">    2.48    2.50</time>
   <time name="total">    2.48    2.50</time>
   <energy>
    <i name="e_fr_energy">   -867.45481220 </i>
    <i name="e_wo_entrp">   -867.45481220 </i>
    <i name="e_0_energy">   -867.45481220 </i>
   </energy>
  </scstep>
  <scstep>
   <time name="dav">    2.46    2.49</time>
   <time name="total">    2.46    2.49</time>
   <energy>
    <i name="e_fr_energy">   -934.18834022 </i>
    <i name="e_wo_entrp">   -934.18834022 </i>
    <i name="e_0_energy">   -934.18834022 </i>
   </energy>
  </scstep>
  <scstep>
   <time name="dav">    2.50    2.53</time>
   <time name="total">    2.75    2.78</time>
   <energy>
    <i name="e_fr_energy">   -935.77678123 </i>
    <i name="e_wo_entrp">   -935.77678123 </i>
    <i name="e_0_energy">   -935.77678123 </i>
   </energy>
  </scstep>
  <scstep>
   <time name="dav">    2.33    2.35</time>
   <time name="total">    2.94    2.97</time>
   <energy>
    <i name="e_fr_energy">   -858.73427952 </i>
    <i name="e_wo_entrp">   -858.73427952 </i>
    <i name="e_0_energy">   -858.73427952 </i>
   </energy>
  </scstep>
  <scstep>
   <time name="dav">    2.35    2.37</time>
   <time name="total">    2.96    2.99</time>
   <energy>
    <i name="e_fr_energy">   -850.19483379 </i>
    <i name="e_wo_entrp">   -850.19483379 </i>
    <i name="e_0_energy">   -850.19483379 </i>
   </energy>
  </scstep>
  <scstep>
   <time name="dav">    2.29    2.31</time>
   <time name="total">    2.90    2.94</time>
   <energy>
    <i name="e_fr_energy">   -845.92706861 </i>
    <i name="e_wo_entrp">   -845.92706819 </i>
    <i name="e_0_energy">   -845.92706840 </i>
   </energy>
  </scstep>
  <scstep>
   <time name="dav">    2.30    2.32</time>
   <time name="total">    2.91    2.95</time>
   <energy>
    <i name="e_fr_energy">   -845.80198227 </i>
    <i name="e_wo_entrp">   -845.80198227 </i>
    <i name="e_0_energy">   -845.80198227 </i>
   </energy>
  </scstep>
  <scstep>
   <time name="dav">    2.37    2.40</time>
   <time name="total">    2.98    3.02</time>
   <energy>
    <i name="e_fr_energy">   -845.64098042 </i>
    <i name="e_wo_entrp">   -845.64098042 </i>
    <i name="e_0_energy">   -845.64098042 </i>
   </energy>
  </scstep>
  <scstep>
   <time name="dav">    2.24    2.26</time>
   <time name="total">    2.85    2.89</time>
   <energy>
    <i name="e_fr_energy">   -845.59057832 </i>
    <i name="e_wo_entrp">   -845.59057832 </i>
    <i name="e_0_energy">   -845.59057832 </i>
   </energy>
  </scstep>
  <scstep>
   <time name="dav">    2.26    2.28</time>
   <time name="total">    2.87    2.90</time>
   <energy>
    <i name="e_fr_energy">   -845.57777359 </i>
    <i name="e_wo_entrp">   -845.57777359 </i>
    <i name="e_0_energy">   -845.57777359 </i>
   </energy>
  </scstep>
  <scstep>
   <time name="dav">    2.23    2.25</time>
   <time name="total">    2.85    2.88</time>
   <energy>
    <i name="e_fr_energy">   -845.57711741 </i>
    <i name="e_wo_entrp">   -845.57711741 </i>
    <i name="e_0_energy">   -845.57711741 </i>
   </energy>
  </scstep>
  <scstep>
   <time name="dav">    2.23    2.25</time>
   <time name="total">    2.86    2.89</time>
   <energy>
    <i name="e_fr_energy">   -845.58264896 </i>
    <i name="e_wo_entrp">   -845.58264896 </i>
    <i name="e_0_energy">   -845.58264896 </i>
   </energy>
  </scstep>
  <scstep>
   <time name="dav">    2.23    2.26</time>
   <time name="total">    2.85    2.89</time>
   <energy>
    <i name="e_fr_energy">   -845.60584764 </i>
    <i name="e_wo_entrp">   -845.60584764 </i>
    <i name="e_0_energy">   -845.60584764 </i>
   </energy>
  </scstep>
  <scstep>
   <time name="dav">    2.18    2.20</time>
   <time name="total">    2.80    2.83</time>
   <energy>
    <i name="e_fr_energy">   -845.63162935 </i>
    <i name="e_wo_entrp">   -845.63162935 </i>
    <i name="e_0_energy">   -845.63162935 </i>
   </energy>
  </scstep>
  <scstep>
   <time name="dav">    2.26    2.28</time>
   <time name="total">    2.87    2.91</time>
   <energy>
    <i name="e_fr_energy">   -845.64533304 </i>
    <i name="e_wo_entrp">   -845.64533304 </i>
    <i name="e_0_energy">   -845.64533304 </i>
   </energy>
  </scstep>
  <scstep>
   <time name="dav">    2.27    2.29</time>
   <time name="total">    2.89    2.92</time>
   <energy>
    <i name="e_fr_energy">   -845.65094767 </i>
    <i name="e_wo_entrp">   -845.65094767 </i>
    <i name="e_0_energy">   -845.65094767 </i>
   </energy>
  </scstep>
  <scstep>
   <time name="dav">    2.26    2.28</time>
   <time name="total">    2.88    2.91</time>
   <energy>
    <i name="e_fr_energy">   -845.65304069 </i>
    <i name="e_wo_entrp">   -845.65304069 </i>
    <i name="e_0_energy">   -845.65304069 </i>
   </energy>
  </scstep>
  <scstep>
   <time name="dav">    2.25    2.28</time>
   <time name="total">    2.87    2.92</time>
   <energy>
    <i name="e_fr_energy">   -845.65380845 </i>
    <i name="e_wo_entrp">   -845.65380845 </i>
    <i name="e_0_energy">   -845.65380845 </i>
   </energy>
  </scstep>
  <scstep>
   <time name="dav">    2.28    2.30</time>
   <time name="total">    2.90    2.93</time>
   <energy>
    <i name="e_fr_energy">   -845.65409830 </i>
    <i name="e_wo_entrp">   -845.65409830 </i>
    <i name="e_0_energy">   -845.65409830 </i>
   </energy>
  </scstep>
  <scstep>
   <time name="dav">    2.18    2.20</time>
   <time name="total">    2.80    2.84</time>
   <energy>
    <i name="e_fr_energy">   -845.65428122 </i>
    <i name="e_wo_entrp">   -845.65428122 </i>
    <i name="e_0_energy">   -845.65428122 </i>
   </energy>
  </scstep>
  <scstep>
   <time name="dav">    2.21    2.23</time>
   <time name="total">    2.82    2.86</time>
   <energy>
    <i name="e_fr_energy">   -845.65439372 </i>
    <i name="e_wo_entrp">   -845.65439372 </i>
    <i name="e_0_energy">   -845.65439372 </i>
   </energy>
  </scstep>
  <scstep>
   <time name="dav">    2.21    2.23</time>
   <time name="total">    2.83    2.87</time>
   <energy>
    <i name="e_fr_energy">   -845.65446459 </i>
    <i name="e_wo_entrp">   -845.65446459 </i>
    <i name="e_0_energy">   -845.65446459 </i>
   </energy>
  </scstep>
  <scstep>
   <time name="dav">    2.33    2.35</time>
   <time name="total">    2.95    2.98</time>
   <energy>
    <i name="e_fr_energy">   -845.65449636 </i>
    <i name="e_wo_entrp">   -845.65449636 </i>
    <i name="e_0_energy">   -845.65449636 </i>
   </energy>
  </scstep>
  <scstep>
   <time name="dav">    2.21    2.23</time>
   <time name="total">    2.83    2.86</time>
   <energy>
    <i name="e_fr_energy">   -845.65451425 </i>
    <i name="e_wo_entrp">   -845.65451425 </i>
    <i name="e_0_energy">   -845.65451425 </i>
   </energy>
  </scstep>
  <scstep>
   <time name="dav">    2.31    2.33</time>
   <time name="total">    3.05    5.04</time>
   <energy>
    <i name="e_fr_energy">   -845.65452011 </i>
    <i name="e_wo_entrp">   -845.65452011 </i>
    <i name="e_0_energy">   -845.65452011 </i>
   </energy>
  </scstep>
  <scstep>
   <time name="dav">    1.95    1.98</time>
   <time name="total">    2.58    2.79</time>
   <energy>
    <i name="e_fr_energy">   -845.65452222 </i>
    <i name="e_wo_entrp">   -845.65452222 </i>
    <i name="e_0_energy">   -845.65452222 </i>
   </energy>
  </scstep>
  <scstep>
   <time name="dav">    1.96    1.98</time>
   <time name="total">    2.59    2.63</time>
   <energy>
    <i name="e_fr_energy">   -845.65452311 </i>
    <i name="e_wo_entrp">   -845.65452311 </i>
    <i name="e_0_energy">   -845.65452311 </i>
   </energy>
  </scstep>
  <scstep>
   <time name="dav">    1.70    1.72</time>
   <time name="total">    2.33    2.36</time>
   <energy>
    <i name="e_fr_energy">   -845.65452326 </i>
    <i name="e_wo_entrp">   -845.65452326 </i>
    <i name="e_0_energy">   -845.65452326 </i>
   </energy>
  </scstep>
  <scstep>
   <time name="dav">    1.66    1.68</time>
   <time name="total">    2.29    2.32</time>
   <energy>
    <i name="e_fr_energy">   -845.65452334 </i>
    <i name="e_wo_entrp">   -845.65452334 </i>
    <i name="e_0_energy">   -845.65452334 </i>
   </energy>
  </scstep>
  <scstep>
   <time name="dav">    1.78    1.80</time>
   <time name="total">    2.41    2.44</time>
   <energy>
    <i name="e_fr_energy">   -845.65452336 </i>
    <i name="e_wo_entrp">   -845.65452336 </i>
    <i name="e_0_energy">   -845.65452336 </i>
   </energy>
  </scstep>
  <scstep>
   <time name="dav">    1.71    1.73</time>
   <time name="total">    2.08    2.12</time>
   <energy>
    <i name="alphaZ">    156.50993408 </i>
    <i name="ewald">  58206.74000973 </i>
    <i name="hartreedc"> -72314.24853766 </i>
    <i name="XCdc">   1369.72452374 </i>
    <i name="pawpsdc">  44019.01182960 </i>
    <i name="pawaedc"> -44054.35374888 </i>
    <i name="eentropy">     -0.00000000 </i>
    <i name="bandstr">  -4489.97733537 </i>
    <i name="atom">  16260.93880140 </i>
    <i name="e_fr_energy">   -845.65452336 </i>
    <i name="e_wo_entrp">   -845.65452336 </i>
    <i name="e_0_energy">   -845.65452336 </i>
   </energy>
  </scstep>
  <structure>
   <crystal>
    <varray name="basis" >
     <v>      17.59966831       0.00000000       0.00000000 </v>
     <v>      -8.79983416      15.24175986       0.00000000 </v>
     <v>       0.00000000       0.00000000      19.92151445 </v>
    </varray>
    <i name="volume">   5343.94461817 </i>
    <varray name="rec_basis" >
     <v>       0.05681925       0.03280461       0.00000000 </v>
     <v>       0.00000000       0.06560922       0.00000000 </v>
     <v>       0.00000000       0.00000000       0.05019699 </v>
    </varray>
   </crystal>
   <varray name="positions" >
    <v>       0.99943010       0.00005992       0.50000000 </v>
    <v>       0.14164706       0.99871895       0.50000000 </v>
    <v>       0.28492260       0.99841663       0.50000000 </v>
    <v>       0.42850047       0.99871895       0.50000000 </v>
    <v>       0.57205839       0.00005992       0.50000000 </v>
    <v>       0.71530655       0.00214292       0.50000000 </v>
    <v>       0.85826494       0.00214292       0.50000000 </v>
    <v>       0.00080792       0.14408264       0.50000000 </v>
    <v>       0.14259355       0.14244783       0.50000000 </v>
    <v>       0.28470221       0.14112972       0.50000000 </v>
    <v>       0.42785608       0.14112972       0.50000000 </v>
    <v>       0.57128286       0.14244783       0.50000000 </v>
    <v>       0.71470329       0.14408264       0.50000000 </v>
    <v>       0.85805263       0.14467669       0.50000000 </v>
    <v>       0.00095476       0.28713011       0.50000000 </v>
    <v>       0.14372552       0.28645370       0.50000000 </v>
    <v>       0.28540977       0.28469374       0.50000000 </v>
    <v>       0.42724431       0.28306005       0.50000000 </v>
    <v>       0.57071254       0.28469374       0.50000000 </v>
    <v>       0.71415674       0.28645370       0.50000000 </v>
    <v>       0.85760392       0.28713011       0.50000000 </v>
    <v>       0.00054479       0.42966101       0.50000000 </v>
    <v>       0.14422690       0.42957551       0.50000000 </v>
    <v>       0.28730213       0.42918005       0.50000000 </v>
    <v>       0.42797654       0.42569726       0.50000000 </v>
    <v>       0.56914930       0.42569726       0.50000000 </v>
    <v>       0.71330650       0.42918005       0.50000000 </v>
    <v>       0.85677719       0.42957551       0.50000000 </v>
    <v>       0.99928255       0.57181462       0.50000000 </v>
    <v>       0.14396064       0.57181462       0.50000000 </v>
    <v>       0.28862787       0.57181625       0.50000000 </v>
    <v>       0.43350828       0.57215564       0.50037619 </v>
    <v>       0.71045212       0.57215564       0.50000000 </v>
    <v>       0.85461695       0.57181625       0.50000000 </v>
    <v>       0.99707234       0.71370518       0.50000000 </v>
    <v>       0.14255519       0.71368182       0.50000000 </v>
    <v>       0.28806142       0.71370518       0.50000000 </v>
    <v>       0.43464191       0.71382540       0.50000000 </v>
    <v>       0.58510826       0.71626937       0.50000000 </v>
    <v>       0.70258968       0.71626937       0.50000000 </v>
    <v>       0.85061206       0.71382540       0.50000000 </v>
    <v>       0.99777175       0.85613493       0.50000000 </v>
    <v>       0.14160898       0.85591288       0.50000000 </v>
    <v>       0.28573247       0.85591288       0.50000000 </v>
    <v>       0.42979175       0.85613493       0.50000000 </v>
    <v>       0.57342541       0.85758690       0.50000000 </v>
    <v>       0.71640633       0.86138410       0.50000000 </v>
    <v>       0.85559006       0.85758690       0.50000000 </v>
    <v>       0.04754270       0.09547788       0.50000000 </v>
    <v>       0.18957833       0.09405657       0.50000000 </v>
    <v>       0.33254182       0.09365506       0.50000000 </v>
    <v>       0.47590681       0.09405657       0.50000000 </v>
    <v>       0.61936376       0.09547788       0.50000000 </v>
    <v>       0.76280004       0.09719274       0.50000000 </v>
    <v>       0.90582126       0.09719274       0.50000000 </v>
    <v>       0.04854983       0.23934281       0.50000000 </v>
    <v>       0.19048138       0.23782962       0.50000000 </v>
    <v>       0.33234878       0.23634667       0.50000000 </v>
    <v>       0.47542646       0.23634667       0.50000000 </v>
    <v>       0.61877681       0.23782962       0.50000000 </v>
    <v>       0.76222155       0.23934281       0.50000000 </v>
    <v>       0.90562797       0.23982737       0.50000000 </v>
    <v>       0.04871288       0.38232824       0.50000000 </v>
    <v>       0.19188940       0.38184213       0.50000000 </v>
    <v>       0.33352206       0.38013969       0.50000000 </v>
    <v>       0.47472270       0.37801683       0.50000000 </v>
    <v>       0.61804620       0.38013969       0.50000000 </v>
    <v>       0.76138130       0.38184213       0.50000000 </v>
    <v>       0.90504393       0.38232824       0.50000000 </v>
    <v>       0.04810654       0.52478452       0.50000000 </v>
    <v>       0.19263929       0.52476864       0.50000000 </v>
    <v>       0.33696521       0.52455433       0.50000000 </v>
    <v>       0.47833704       0.52146721       0.50000000 </v>
    <v>       0.61455874       0.52146721       0.50000000 </v>
    <v>       0.75901769       0.52455433       0.50000000 </v>
    <v>       0.90355792       0.52476864       0.50000000 </v>
    <v>       0.04642473       0.66685228       0.50000000 </v>
    <v>       0.19185612       0.66685228       0.50000000 </v>
    <v>       0.33777931       0.66688794       0.50000000 </v>
    <v>       0.48615700       0.66710760       0.50000000 </v>
    <v>       0.75237918       0.66710760       0.50000000 </v>
    <v>       0.90053720       0.66688794       0.50000000 </v>
    <v>       0.04582562       0.80879365       0.50000000 </v>
    <v>       0.19009580       0.80876303       0.50000000 </v>
    <v>       0.33439660       0.80879365       0.50000000 </v>
    <v>       0.47844872       0.80897069       0.50000000 </v>
    <v>       0.62209487       0.81129474       0.50000000 </v>
    <v>       0.76062845       0.81129474       0.50000000 </v>
    <v>       0.90195054       0.80897069       0.50000000 </v>
    <v>       0.04629157       0.95154386       0.50000000 </v>
    <v>       0.18948291       0.95113037       0.50000000 </v>
    <v>       0.33307603       0.95113037       0.50000000 </v>
    <v>       0.47668087       0.95154386       0.50000000 </v>
    <v>       0.62015751       0.95313740       0.50000000 </v>
    <v>       0.76355772       0.95568687       0.50000000 </v>
    <v>       0.90440847       0.95313740       0.50000000 </v>
    <v>       0.56830873       0.56518888       0.50000000 </v>
   </varray>
  </structure>
  <varray name="forces" >
   <v>      -0.03937229      -0.02558597      -0.00002214 </v>
   <v>      -0.02157607      -0.00952909      -0.00001091 </v>
   <v>       0.00022645      -0.01360284      -0.00001426 </v>
   <v>       0.02173826      -0.01060975       0.00000773 </v>
   <v>       0.03931204      -0.02683093       0.00000480 </v>
   <v>      -0.03389096      -0.04945482      -0.00000834 </v>
   <v>       0.03356688      -0.04878798       0.00002126 </v>
   <v>      -0.00598830      -0.02533062       0.00000814 </v>
   <v>      -0.02738857      -0.02416452      -0.00002403 </v>
   <v>      -0.00808415      -0.03442803      -0.00002098 </v>
   <v>       0.00753194      -0.03516235      -0.00000774 </v>
   <v>       0.02728304      -0.02650362      -0.00002106 </v>
   <v>       0.00631910      -0.02706914      -0.00001363 </v>
   <v>       0.00032976      -0.04075272      -0.00001578 </v>
   <v>      -0.00758623      -0.02754021      -0.00001268 </v>
   <v>       0.00397138      -0.03938228      -0.00047484 </v>
   <v>      -0.03157766      -0.00191255       0.00012891 </v>
   <v>      -0.00171791      -0.09814187      -0.00035295 </v>
   <v>       0.03110993      -0.00513495       0.00007531 </v>
   <v>      -0.00420064      -0.04509015      -0.00001800 </v>
   <v>       0.00970293      -0.02900851      -0.00001210 </v>
   <v>       0.00226117       0.00743286      -0.00001288 </v>
   <v>      -0.02164997       0.00119784       0.00007570 </v>
   <v>       0.05082257      -0.11167978       0.00067868 </v>
   <v>      -0.12321724      -0.22194245      -0.00088644 </v>
   <v>       0.11422191      -0.20564837      -0.00058596 </v>
   <v>      -0.05479545      -0.13904827      -0.00000026 </v>
   <v>       0.02733832      -0.00097772      -0.00001787 </v>
   <v>       0.01911952       0.02869272       0.00000411 </v>
   <v>      -0.01305306       0.02717472      -0.00046007 </v>
   <v>      -0.05748794       0.12158648       0.00059908 </v>
   <v>      -0.25701341       0.40358601      -0.10661259 </v>
   <v>      -0.04476546       0.40046933      -0.00067094 </v>
   <v>       0.08812232       0.12888420       0.00003756 </v>
   <v>      -0.00667559       0.02250382      -0.00001117 </v>
   <v>       0.00215232       0.02676716      -0.00001447 </v>
   <v>       0.01197805       0.01991639       0.00008401 </v>
   <v>       0.07772191       0.02777741      -0.00003914 </v>
   <v>       1.35904186       1.26351535       0.00198216 </v>
   <v>      -1.36275852       1.25396678       0.00005325 </v>
   <v>      -0.08454206       0.04415554      -0.00005894 </v>
   <v>      -0.04570396      -0.00729815      -0.00000983 </v>
   <v>      -0.01175751      -0.00466758      -0.00001356 </v>
   <v>       0.01359268      -0.00526893      -0.00001192 </v>
   <v>       0.04506012      -0.00915873      -0.00044777 </v>
   <v>       0.15066717       0.03626344      -0.00000835 </v>
   <v>      -0.00161735      -0.25129615      -0.00057347 </v>
   <v>      -0.15043735       0.03709932       0.00005686 </v>
   <v>       0.02672794       0.03107596       0.00001941 </v>
   <v>       0.01135732       0.02315157       0.00001630 </v>
   <v>       0.00038890       0.02827488       0.00001278 </v>
   <v>      -0.01077033       0.02434318       0.00000830 </v>
   <v>      -0.02690222       0.03259036      -0.00001157 </v>
   <v>      -0.01303163       0.02681021      -0.00001046 </v>
   <v>       0.01224347       0.02612743       0.00000012 </v>
   <v>       0.01564520       0.03328511       0.00013960 </v>
   <v>      -0.00669287       0.00174318       0.00004498 </v>
   <v>       0.01803883       0.03684983       0.00004024 </v>
   <v>      -0.01579108       0.03807763       0.00011088 </v>
   <v>       0.00748897       0.00461492      -0.00004503 </v>
   <v>      -0.01754074       0.03567552       0.00002280 </v>
   <v>      -0.00124553       0.03037010      -0.00000096 </v>
   <v>       0.00825486       0.02460812       0.00018573 </v>
   <v>       0.04410191       0.05150106      -0.00202434 </v>
   <v>      -0.00849212      -0.20149756       0.00123101 </v>
   <v>      -0.00092878       0.11802453      -0.00172201 </v>
   <v>       0.01865765      -0.19720656       0.00063043 </v>
   <v>      -0.05020721       0.06015908      -0.00002395 </v>
   <v>      -0.01315297       0.02601357       0.00000152 </v>
   <v>      -0.00267728       0.00900729       0.00013111 </v>
   <v>       0.01940084      -0.00869711      -0.00195259 </v>
   <v>       0.29899311       0.14348131       0.03904695 </v>
   <v>       1.12939123      -1.61279673       0.03246846 </v>
   <v>      -1.03377150      -1.55817006      -0.00605072 </v>
   <v>      -0.19367426       0.11269910       0.00025458 </v>
   <v>      -0.02796598      -0.00716386      -0.00000244 </v>
   <v>       0.00800497      -0.03290981       0.00000849 </v>
   <v>      -0.01228575      -0.03152600       0.00004631 </v>
   <v>      -0.06001411      -0.05718700       0.00140618 </v>
   <v>      -0.21702806       0.01449636       0.03798268 </v>
   <v>       0.26894132       0.00661141      -0.00015289 </v>
   <v>       0.05713336      -0.06711936       0.00001858 </v>
   <v>       0.03541870      -0.01310684       0.00001015 </v>
   <v>      -0.00088843      -0.01028444       0.00001551 </v>
   <v>      -0.03662677      -0.01052526       0.00004816 </v>
   <v>      -0.08133269      -0.01426075      -0.00194408 </v>
   <v>      -0.88259746       0.24505287      -0.00309775 </v>
   <v>       0.88582650       0.24147524       0.00030692 </v>
   <v>       0.08441916      -0.01446630       0.00001925 </v>
   <v>       0.03154820       0.01658196       0.00001206 </v>
   <v>       0.00982162      -0.00327296       0.00001156 </v>
   <v>      -0.01014064      -0.00261051       0.00000936 </v>
   <v>      -0.03136031       0.01782712       0.00013466 </v>
   <v>      -0.11037899       0.11905740       0.00030544 </v>
   <v>       0.00030749       0.01565563       0.00021147 </v>
   <v>       0.11041352       0.11799382      -0.00003525 </v>
   <v>       0.03663867      -0.12041493       0.00980953 </v>
  </varray>
  <varray name="stress" >
   <v>     -10.60399274      -0.01629174      -0.00057733 </v>
   <v>      -0.01629174       3.04328306       0.00090565 </v>
   <v>      -0.00057734       0.00090565      -0.42580341 </v>
  </varray>
  <energy>
   <i name="e_fr_energy">   -845.65452336 </i>
   <i name="e_wo_entrp">   -845.65452336 </i>
   <i name="e_0_energy">     -0.00000000 </i>
  </energy>
  <time name="totalsc">   98.52  101.99</time>
  <eigenvalues>
   <array>
    <dimension dim="1">band</dimension>
    <dimension dim="2">kpoint</dimension>
    <dimension dim="3">spin</dimension>
    <field>eigene</field>
    <field>occ</field>
    <set>
     <set comment="spin 1">
      <set comment="kpoint 1">
       <r>  -22.5536    1.0000 </r>
       <r>  -22.0203    1.0000 </r>
       <r>  -21.7722    1.0000 </r>
       <r>  -21.7437    1.0000 </r>
       <r>  -21.6955    1.0000 </r>
       <r>  -21.6534    1.0000 </r>
       <r>  -21.6180    1.0000 </r>
       <r>  -21.2363    1.0000 </r>
       <r>  -21.0722    1.0000 </r>
       <r>  -21.0039    1.0000 </r>
       <r>  -20.9678    1.0000 </r>
       <r>  -20.9258    1.0000 </r>
       <r>  -20.8759    1.0000 </r>
       <r>  -20.7440    1.0000 </r>
       <r>  -20.7049    1.0000 </r>
       <r>  -20.6625    1.0000 </r>
       <r>  -20.5932    1.0000 </r>
       <r>  -20.5682    1.0000 </r>
       <r>  -20.4278    1.0000 </r>
       <r>  -19.9872    1.0000 </r>
       <r>  -19.9243    1.0000 </r>
       <r>  -19.8044    1.0000 </r>
       <r>  -19.7618    1.0000 </r>
       <r>  -19.7362    1.0000 </r>
       <r>  -19.7334    1.0000 </r>
       <r>  -19.7056    1.0000 </r>
       <r>  -19.6976    1.0000 </r>
       <r>  -19.6438    1.0000 </r>
       <r>  -19.6373    1.0000 </r>
       <r>  -19.6287    1.0000 </r>
       <r>  -19.4927    1.0000 </r>
       <r>  -19.4077    1.0000 </r>
       <r>  -19.3635    1.0000 </r>
       <r>  -19.3549    1.0000 </r>
       <r>  -19.2893    1.0000 </r>
       <r>  -19.2388    1.0000 </r>
       <r>  -19.1053    1.0000 </r>
       <r>  -19.0006    1.0000 </r>
       <r>  -18.9317    1.0000 </r>
       <r>  -18.8746    1.0000 </r>
       <r>  -18.8526    1.0000 </r>
       <r>  -18.8356    1.0000 </r>
       <r>  -18.7650    1.0000 </r>
       <r>  -18.7499    1.0000 </r>
       <r>  -18.7264    1.0000 </r>
       <r>  -18.7121    1.0000 </r>
       <r>  -18.6935    1.0000 </r>
       <r>  -18.4456    1.0000 </r>
       <r>  -14.1520    1.0000 </r>
       <r>  -13.1878    1.0000 </r>
       <r>  -13.1570    1.0000 </r>
       <r>  -13.1099    1.0000 </r>
       <r>  -13.1027    1.0000 </r>
       <r>  -13.0782    1.0000 </r>
       <r>  -13.0156    1.0000 </r>
       <r>  -12.9578    1.0000 </r>
       <r>  -12.9511    1.0000 </r>
       <r>  -12.9341    1.0000 </r>
       <r>  -12.8057    1.0000 </r>
       <r>  -12.7678    1.0000 </r>
       <r>  -12.6006    1.0000 </r>
       <r>  -12.5049    1.0000 </r>
       <r>  -12.4850    1.0000 </r>
       <r>  -12.3775    1.0000 </r>
       <r>  -12.3089    1.0000 </r>
       <r>  -12.2970    1.0000 </r>
       <r>  -12.1750    1.0000 </r>
       <r>  -11.9034    1.0000 </r>
       <r>  -11.8857    1.0000 </r>
       <r>  -11.7666    1.0000 </r>
       <r>  -11.7635    1.0000 </r>
       <r>  -11.7502    1.0000 </r>
       <r>  -11.7403    1.0000 </r>
       <r>  -11.6942    1.0000 </r>
       <r>  -11.6559    1.0000 </r>
       <r>  -11.6315    1.0000 </r>
       <r>  -11.5408    1.0000 </r>
       <r>  -11.4232    1.0000 </r>
       <r>  -11.2006    1.0000 </r>
       <r>  -11.1244    1.0000 </r>
       <r>  -11.0840    1.0000 </r>
       <r>  -11.0576    1.0000 </r>
       <r>  -10.9658    1.0000 </r>
       <r>  -10.9120    1.0000 </r>
       <r>  -10.6836    1.0000 </r>
       <r>  -10.4621    1.0000 </r>
       <r>  -10.4311    1.0000 </r>
       <r>  -10.3487    1.0000 </r>
       <r>  -10.2550    1.0000 </r>
       <r>  -10.2084    1.0000 </r>
       <r>   -9.8924    1.0000 </r>
       <r>   -9.7678    1.0000 </r>
       <r>   -9.7652    1.0000 </r>
       <r>   -9.7258    1.0000 </r>
       <r>   -9.6760    1.0000 </r>
       <r>   -9.5850    1.0000 </r>
       <r>   -9.5426    1.0000 </r>
       <r>   -9.4971    1.0000 </r>
       <r>   -9.4648    1.0000 </r>
       <r>   -9.3559    1.0000 </r>
       <r>   -9.3461    1.0000 </r>
       <r>   -9.2901    1.0000 </r>
       <r>   -9.2589    1.0000 </r>
       <r>   -9.2556    1.0000 </r>
       <r>   -9.2500    1.0000 </r>
       <r>   -9.2359    1.0000 </r>
       <r>   -9.2224    1.0000 </r>
       <r>   -9.2219    1.0000 </r>
       <r>   -9.2072    1.0000 </r>
       <r>   -9.2020    1.0000 </r>
       <r>   -9.1985    1.0000 </r>
       <r>   -9.1971    1.0000 </r>
       <r>   -9.1544    1.0000 </r>
       <r>   -9.1360    1.0000 </r>
       <r>   -9.1102    1.0000 </r>
       <r>   -9.1098    1.0000 </r>
       <r>   -9.0997    1.0000 </r>
       <r>   -9.0436    1.0000 </r>
       <r>   -8.9948    1.0000 </r>
       <r>   -8.8448    1.0000 </r>
       <r>   -8.7957    1.0000 </r>
       <r>   -8.6522    1.0000 </r>
       <r>   -8.5073    1.0000 </r>
       <r>   -8.4804    1.0000 </r>
       <r>   -8.4416    1.0000 </r>
       <r>   -8.3301    1.0000 </r>
       <r>   -8.2235    1.0000 </r>
       <r>   -8.2033    1.0000 </r>
       <r>   -8.1972    1.0000 </r>
       <r>   -8.1695    1.0000 </r>
       <r>   -8.1495    1.0000 </r>
       <r>   -8.1222    1.0000 </r>
       <r>   -8.0386    1.0000 </r>
       <r>   -7.9704    1.0000 </r>
       <r>   -7.9492    1.0000 </r>
       <r>   -7.8712    1.0000 </r>
       <r>   -7.8471    1.0000 </r>
       <r>   -7.8454    1.0000 </r>
       <r>   -7.8013    1.0000 </r>
       <r>   -7.7990    1.0000 </r>
       <r>   -7.7983    1.0000 </r>
       <r>   -7.7384    1.0000 </r>
       <r>   -7.7330    1.0000 </r>
       <r>   -7.7117    1.0000 </r>
       <r>   -7.6788    1.0000 </r>
       <r>   -7.6768    1.0000 </r>
       <r>   -7.6641    1.0000 </r>
       <r>   -7.6378    1.0000 </r>
       <r>   -7.6319    1.0000 </r>
       <r>   -7.4425    1.0000 </r>
       <r>   -7.4385    1.0000 </r>
       <r>   -7.4270    1.0000 </r>
       <r>   -7.3838    1.0000 </r>
       <r>   -7.3583    1.0000 </r>
       <r>   -7.2722    1.0000 </r>
       <r>   -6.8310    1.0000 </r>
       <r>   -6.7594    1.0000 </r>
       <r>   -6.6199    1.0000 </r>
       <r>   -6.6070    1.0000 </r>
       <r>   -6.5471    1.0000 </r>
       <r>   -6.5381    1.0000 </r>
       <r>   -6.5016    1.0000 </r>
       <r>   -6.4885    1.0000 </r>
       <r>   -6.4575    1.0000 </r>
       <r>   -6.4558    1.0000 </r>
       <r>   -6.4396    1.0000 </r>
       <r>   -6.4383    1.0000 </r>
       <r>   -6.4089    1.0000 </r>
       <r>   -6.4039    1.0000 </r>
       <r>   -6.3597    1.0000 </r>
       <r>   -6.3457    1.0000 </r>
       <r>   -6.3162    1.0000 </r>
       <r>   -6.1105    1.0000 </r>
       <r>   -5.9691    1.0000 </r>
       <r>   -5.9245    1.0000 </r>
       <r>   -5.8860    1.0000 </r>
       <r>   -5.8806    1.0000 </r>
       <r>   -5.8605    1.0000 </r>
       <r>   -5.7807    1.0000 </r>
       <r>   -5.7793    1.0000 </r>
       <r>   -5.5259    1.0000 </r>
       <r>   -5.2215    1.0000 </r>
       <r>   -5.2023    1.0000 </r>
       <r>   -5.1967    1.0000 </r>
       <r>   -5.1401    1.0000 </r>
       <r>   -5.1322    1.0000 </r>
       <r>   -5.1033    1.0000 </r>
       <r>   -4.9990    1.0000 </r>
       <r>   -4.9447    1.0000 </r>
       <r>   -4.9165    1.0000 </r>
       <r>   -4.9062    1.0000 </r>
       <r>   -4.8982    1.0000 </r>
       <r>   -4.7324    1.0000 </r>
       <r>   -1.3239    1.0000 </r>
       <r>   -1.2083    0.0000 </r>
       <r>    0.0555    0.0000 </r>
       <r>    0.2051    0.0000 </r>
       <r>    0.2383    0.0000 </r>
       <r>    0.2585    0.0000 </r>
       <r>    0.2621    0.0000 </r>
       <r>    0.3036    0.0000 </r>
       <r>    0.3050    0.0000 </r>
       <r>    0.3790    0.0000 </r>
       <r>    0.3939    0.0000 </r>
       <r>    0.4345    0.0000 </r>
       <r>    0.4797    0.0000 </r>
       <r>    0.5269    0.0000 </r>
       <r>    0.6096    0.0000 </r>
       <r>    0.7476    0.0000 </r>
       <r>    0.7491    0.0000 </r>
       <r>    0.7789    0.0000 </r>
       <r>    0.8068    0.0000 </r>
       <r>    0.8122    0.0000 </r>
       <r>    0.8279    0.0000 </r>
       <r>    0.8385    0.0000 </r>
       <r>    0.8587    0.0000 </r>
       <r>    0.8709    0.0000 </r>
       <r>    0.9820    0.0000 </r>
       <r>    1.0193    0.0000 </r>
       <r>    1.0601    0.0000 </r>
       <r>    1.1190    0.0000 </r>
       <r>    1.4953    0.0000 </r>
       <r>    1.6728    0.0000 </r>
       <r>    1.6975    0.0000 </r>
       <r>    1.7065    0.0000 </r>
       <r>    1.7241    0.0000 </r>
       <r>    1.7402    0.0000 </r>
       <r>    1.7441    0.0000 </r>
       <r>    1.8049    0.0000 </r>
       <r>    1.8057    0.0000 </r>
       <r>    1.8466    0.0000 </r>
       <r>    1.8470    0.0000 </r>
       <r>    1.8797    0.0000 </r>
       <r>    1.8816    0.0000 </r>
       <r>    1.9062    0.0000 </r>
       <r>    1.9075    0.0000 </r>
       <r>    1.9293    0.0000 </r>
       <r>    1.9836    0.0000 </r>
       <r>    2.0296    0.0000 </r>
       <r>    2.1029    0.0000 </r>
       <r>    2.1086    0.0000 </r>
       <r>    2.1188    0.0000 </r>
       <r>    2.1299    0.0000 </r>
       <r>    2.1356    0.0000 </r>
      </set>
     </set>
    </set>
   </array>
  </eigenvalues>
  <separator name="orbital magnetization" >
   <v name="MAGDIPOLOUT">      0.00000000      0.00000000      0.00000000</v>
  </separator>
  <dos>
   <i name="efermi">     -1.25816220 </i>
   <total>
    <array>
     <dimension dim="1">gridpoints</dimension>
     <dimension dim="2">spin</dimension>
     <field>energy</field>
     <field>total</field>
     <field>integrated</field>
     <set>
      <set comment="spin 1">
       <r>   -23.7880     0.0000     0.0000 </r>
       <r>   -23.6975     0.0000     0.0000 </r>
       <r>   -23.6070     0.0000     0.0000 </r>
       <r>   -23.5165     0.0000     0.0000 </r>
       <r>   -23.4259     0.0000     0.0000 </r>
       <r>   -23.3354     0.0000     0.0000 </r>
       <r>   -23.2449     0.0000     0.0000 </r>
       <r>   -23.1544     0.0000     0.0000 </r>
       <r>   -23.0638     0.0000     0.0000 </r>
       <r>   -22.9733     0.0000     0.0000 </r>
       <r>   -22.8828     0.0000     0.0000 </r>
       <r>   -22.7922     0.0000     0.0000 </r>
       <r>   -22.7017     0.0000     0.0000 </r>
       <r>   -22.6112     0.0000     0.0000 </r>
       <r>   -22.5207    22.0928     2.0000 </r>
       <r>   -22.4301     0.0000     2.0000 </r>
       <r>   -22.3396     0.0000     2.0000 </r>
       <r>   -22.2491     0.0000     2.0000 </r>
       <r>   -22.1586     0.0000     2.0000 </r>
       <r>   -22.0680     0.0000     2.0000 </r>
       <r>   -21.9775    22.0929     4.0000 </r>
       <r>   -21.8870     0.0000     4.0000 </r>
       <r>   -21.7965     0.0067     4.0006 </r>
       <r>   -21.7059    45.7265     8.1401 </r>
       <r>   -21.6154    36.3274    13.2886 </r>
       <r>   -21.5249     0.0000    14.0000 </r>
       <r>   -21.4343     0.0000    14.0000 </r>
       <r>   -21.3438     0.0000    14.0000 </r>
       <r>   -21.2533     0.1806    14.0163 </r>
       <r>   -21.1628    21.9123    16.0000 </r>
       <r>   -21.0722    11.0505    17.0004 </r>
       <r>   -20.9817    22.6207    20.0478 </r>
       <r>   -20.8912    43.9730    24.0302 </r>
       <r>   -20.8007    21.7591    26.0000 </r>
       <r>   -20.7101    27.2097    28.4632 </r>
       <r>   -20.6196    22.0949    32.0002 </r>
       <r>   -20.5291    44.1837    36.0000 </r>
       <r>   -20.4385     1.4247    36.1290 </r>
       <r>   -20.3480    20.6682    38.0000 </r>
       <r>   -20.2575     0.0000    38.0000 </r>
       <r>   -20.1670     0.0000    38.0000 </r>
       <r>   -20.0764     0.0000    38.0000 </r>
       <r>   -19.9859    12.6465    39.1448 </r>
       <r>   -19.8954    22.0924    42.0000 </r>
       <r>   -19.8049    10.4418    42.9453 </r>
       <r>   -19.7143    68.7523    50.2239 </r>
       <r>   -19.6238    82.0740    59.4481 </r>
       <r>   -19.5333     0.0000    60.0000 </r>
       <r>   -19.4428    22.0929    62.0000 </r>
       <r>   -19.3522    57.3040    67.1876 </r>
       <r>   -19.2617    22.1053    70.0011 </r>
       <r>   -19.1712    22.0794    72.0000 </r>
       <r>   -19.0806    22.0876    73.9995 </r>
       <r>   -18.9901    20.5693    75.8621 </r>
       <r>   -18.8996    22.0973    78.0004 </r>
       <r>   -18.8091    66.2722    83.9998 </r>
       <r>   -18.7185    67.3701    90.0988 </r>
       <r>   -18.6280    22.0884    94.0000 </r>
       <r>   -18.5375     0.0000    94.0000 </r>
       <r>   -18.4470     9.3899    94.8500 </r>
       <r>   -18.3564     0.0000    96.0000 </r>
       <r>   -18.2659     0.0000    96.0000 </r>
       <r>   -18.1754     0.0000    96.0000 </r>
       <r>   -18.0848     0.0000    96.0000 </r>
       <r>   -17.9943     0.0000    96.0000 </r>
       <r>   -17.9038     0.0000    96.0000 </r>
       <r>   -17.8133     0.0000    96.0000 </r>
       <r>   -17.7227     0.0000    96.0000 </r>
       <r>   -17.6322     0.0000    96.0000 </r>
       <r>   -17.5417     0.0000    96.0000 </r>
       <r>   -17.4512     0.0000    96.0000 </r>
       <r>   -17.3606     0.0000    96.0000 </r>
       <r>   -17.2701     0.0000    96.0000 </r>
       <r>   -17.1796     0.0000    96.0000 </r>
       <r>   -17.0891     0.0000    96.0000 </r>
       <r>   -16.9985     0.0000    96.0000 </r>
       <r>   -16.9080     0.0000    96.0000 </r>
       <r>   -16.8175     0.0000    96.0000 </r>
       <r>   -16.7269     0.0000    96.0000 </r>
       <r>   -16.6364     0.0000    96.0000 </r>
       <r>   -16.5459     0.0000    96.0000 </r>
       <r>   -16.4554     0.0000    96.0000 </r>
       <r>   -16.3648     0.0000    96.0000 </r>
       <r>   -16.2743     0.0000    96.0000 </r>
       <r>   -16.1838     0.0000    96.0000 </r>
       <r>   -16.0933     0.0000    96.0000 </r>
       <r>   -16.0027     0.0000    96.0000 </r>
       <r>   -15.9122     0.0000    96.0000 </r>
       <r>   -15.8217     0.0000    96.0000 </r>
       <r>   -15.7311     0.0000    96.0000 </r>
       <r>   -15.6406     0.0000    96.0000 </r>
       <r>   -15.5501     0.0000    96.0000 </r>
       <r>   -15.4596     0.0000    96.0000 </r>
       <r>   -15.3690     0.0000    96.0000 </r>
       <r>   -15.2785     0.0000    96.0000 </r>
       <r>   -15.1880     0.0000    96.0000 </r>
       <r>   -15.0975     0.0000    96.0000 </r>
       <r>   -15.0069     0.0000    96.0000 </r>
       <r>   -14.9164     0.0000    96.0000 </r>
       <r>   -14.8259     0.0000    96.0000 </r>
       <r>   -14.7354     0.0000    96.0000 </r>
       <r>   -14.6448     0.0000    96.0000 </r>
       <r>   -14.5543     0.0000    96.0000 </r>
       <r>   -14.4638     0.0000    96.0000 </r>
       <r>   -14.3732     0.0000    96.0000 </r>
       <r>   -14.2827     0.0000    96.0000 </r>
       <r>   -14.1922     0.0000    96.0000 </r>
       <r>   -14.1017    22.0929    98.0000 </r>
       <r>   -14.0111     0.0000    98.0000 </r>
       <r>   -13.9206     0.0000    98.0000 </r>
       <r>   -13.8301     0.0000    98.0000 </r>
       <r>   -13.7396     0.0000    98.0000 </r>
       <r>   -13.6490     0.0000    98.0000 </r>
       <r>   -13.5585     0.0000    98.0000 </r>
       <r>   -13.4680     0.0000    98.0000 </r>
       <r>   -13.3774     0.0000    98.0000 </r>
       <r>   -13.2869     0.0000    98.0000 </r>
       <r>   -13.1964     2.4563    98.2224 </r>
       <r>   -13.1059    45.1596   104.0882 </r>
       <r>   -13.0153    33.4751   109.0305 </r>
       <r>   -12.9248    64.2127   115.8130 </r>
       <r>   -12.8343     0.0006   116.0001 </r>
       <r>   -12.7438    44.1778   119.9993 </r>
       <r>   -12.6532     0.0000   120.0000 </r>
       <r>   -12.5627    22.0929   122.0000 </r>
       <r>   -12.4722    43.4194   125.9306 </r>
       <r>   -12.3817     6.1981   126.5611 </r>
       <r>   -12.2911    39.5833   131.5834 </r>
       <r>   -12.2006     0.0033   132.0003 </r>
       <r>   -12.1101    22.0895   134.0000 </r>
       <r>   -12.0195     0.0000   134.0000 </r>
       <r>   -11.9290     0.0033   134.0003 </r>
       <r>   -11.8385    44.1825   138.0000 </r>
       <r>   -11.7480    60.6788   143.4931 </r>
       <r>   -11.6574    31.2907   148.8326 </r>
       <r>   -11.5669    22.0926   152.0002 </r>
       <r>   -11.4764    22.0904   154.0000 </r>
       <r>   -11.3859    22.0929   156.0000 </r>
       <r>   -11.2953     0.0000   156.0000 </r>
       <r>   -11.2048     6.0723   156.5497 </r>
       <r>   -11.1143    20.3897   159.8458 </r>
       <r>   -11.0238    44.1855   164.0000 </r>
       <r>   -10.9332    22.1228   166.0027 </r>
       <r>   -10.8427    22.0630   168.0000 </r>
       <r>   -10.7522     0.0000   168.0000 </r>
       <r>   -10.6616    22.0723   169.9981 </r>
       <r>   -10.5711     0.0000   170.0000 </r>
       <r>   -10.4806     0.0987   170.0089 </r>
       <r>   -10.3901    44.0870   174.0000 </r>
       <r>   -10.2995    22.0929   176.0000 </r>
       <r>   -10.2090    32.3797   178.9312 </r>
       <r>   -10.1185     0.0000   180.0000 </r>
       <r>   -10.0280     0.0000   180.0000 </r>
       <r>    -9.9374     0.0000   180.0000 </r>
       <r>    -9.8469    22.0929   182.0000 </r>
       <r>    -9.7564    40.6769   185.6824 </r>
       <r>    -9.6658    42.5043   189.8478 </r>
       <r>    -9.5753    20.1811   191.8269 </r>
       <r>    -9.4848    43.3422   195.9236 </r>
       <r>    -9.3943    22.0421   198.0000 </r>
       <r>    -9.3037    44.7787   202.0537 </r>
       <r>    -9.2132   155.7585   216.1540 </r>
       <r>    -9.1227   109.4939   228.0864 </r>
       <r>    -9.0322    85.5808   235.8935 </r>
       <r>    -8.9416    22.0929   238.0000 </r>
       <r>    -8.8511     4.1190   238.3729 </r>
       <r>    -8.7606    22.0929   242.0000 </r>
       <r>    -8.6701     0.1257   242.0114 </r>
       <r>    -8.5795    21.9672   244.0000 </r>
       <r>    -8.4890    24.4588   246.2142 </r>
       <r>    -8.3985    22.0929   250.0000 </r>
       <r>    -8.3079    22.0734   251.9982 </r>
       <r>    -8.2174    18.3409   253.6603 </r>
       <r>    -8.1269    93.4095   262.5056 </r>
       <r>    -8.0364    13.7777   265.2473 </r>
       <r>    -7.9458    37.1705   269.3649 </r>
       <r>    -7.8553    26.2998   272.3808 </r>
       <r>    -7.7648    66.2808   282.0002 </r>
       <r>    -7.6743    98.4164   290.9095 </r>
       <r>    -7.5837    44.1858   298.0000 </r>
       <r>    -7.4932     0.0000   298.0000 </r>
       <r>    -7.4027    66.3572   304.0071 </r>
       <r>    -7.3121    44.1006   308.0000 </r>
       <r>    -7.2216    22.0929   310.0000 </r>
       <r>    -7.1311     0.0000   310.0000 </r>
       <r>    -7.0406     0.0000   310.0000 </r>
       <r>    -6.9500     0.0000   310.0000 </r>
       <r>    -6.8595     0.0006   310.0001 </r>
       <r>    -6.7690    24.0115   312.1737 </r>
       <r>    -6.6785     0.0000   314.0000 </r>
       <r>    -6.5879    44.1085   317.9930 </r>
       <r>    -6.4974    62.5069   323.6586 </r>
       <r>    -6.4069   109.2686   335.8917 </r>
       <r>    -6.3164    55.0893   342.9871 </r>
       <r>    -6.2258     0.0000   344.0000 </r>
       <r>    -6.1353     0.0050   344.0005 </r>
       <r>    -6.0448    22.0879   346.0000 </r>
       <r>    -5.9542    21.7004   347.9645 </r>
       <r>    -5.8637    73.2764   354.6335 </r>
       <r>    -5.7732    36.7709   359.3288 </r>
       <r>    -5.6827     0.0000   360.0000 </r>
       <r>    -5.5921     0.0000   360.0000 </r>
       <r>    -5.5016    22.0865   361.9994 </r>
       <r>    -5.4111     0.0000   362.0000 </r>
       <r>    -5.3206     0.0000   362.0000 </r>
       <r>    -5.2300     2.5039   362.2267 </r>
       <r>    -5.1395    59.2660   369.3653 </r>
       <r>    -5.0490    22.0929   374.0000 </r>
       <r>    -4.9584    22.6697   376.0522 </r>
       <r>    -4.8679    87.7945   384.0000 </r>
       <r>    -4.7774     0.0000   384.0000 </r>
       <r>    -4.6869    22.0929   386.0000 </r>
       <r>    -4.5963     0.0000   386.0000 </r>
       <r>    -4.5058     0.0000   386.0000 </r>
       <r>    -4.4153     0.0000   386.0000 </r>
       <r>    -4.3248     0.0000   386.0000 </r>
       <r>    -4.2342     0.0000   386.0000 </r>
       <r>    -4.1437     0.0000   386.0000 </r>
       <r>    -4.0532     0.0000   386.0000 </r>
       <r>    -3.9627     0.0000   386.0000 </r>
       <r>    -3.8721     0.0000   386.0000 </r>
       <r>    -3.7816     0.0000   386.0000 </r>
       <r>    -3.6911     0.0000   386.0000 </r>
       <r>    -3.6005     0.0000   386.0000 </r>
       <r>    -3.5100     0.0000   386.0000 </r>
       <r>    -3.4195     0.0000   386.0000 </r>
       <r>    -3.3290     0.0000   386.0000 </r>
       <r>    -3.2384     0.0000   386.0000 </r>
       <r>    -3.1479     0.0000   386.0000 </r>
       <r>    -3.0574     0.0000   386.0000 </r>
       <r>    -2.9669     0.0000   386.0000 </r>
       <r>    -2.8763     0.0000   386.0000 </r>
       <r>    -2.7858     0.0000   386.0000 </r>
       <r>    -2.6953     0.0000   386.0000 </r>
       <r>    -2.6047     0.0000   386.0000 </r>
       <r>    -2.5142     0.0000   386.0000 </r>
       <r>    -2.4237     0.0000   386.0000 </r>
       <r>    -2.3332     0.0000   386.0000 </r>
       <r>    -2.2426     0.0000   386.0000 </r>
       <r>    -2.1521     0.0000   386.0000 </r>
       <r>    -2.0616     0.0000   386.0000 </r>
       <r>    -1.9711     0.0000   386.0000 </r>
       <r>    -1.8805     0.0000   386.0000 </r>
       <r>    -1.7900     0.0000   386.0000 </r>
       <r>    -1.6995     0.0000   386.0000 </r>
       <r>    -1.6090     0.0000   386.0000 </r>
       <r>    -1.5184     0.0000   386.0000 </r>
       <r>    -1.4279     0.0000   386.0000 </r>
       <r>    -1.3374     0.6260   386.0567 </r>
       <r>    -1.2468    21.4669   388.0000 </r>
       <r>    -1.1563    22.0929   390.0000 </r>
       <r>    -1.0658     0.0000   390.0000 </r>
       <r>    -0.9753     0.0000   390.0000 </r>
       <r>    -0.8847     0.0000   390.0000 </r>
       <r>    -0.7942     0.0000   390.0000 </r>
       <r>    -0.7037     0.0000   390.0000 </r>
       <r>    -0.6132     0.0000   390.0000 </r>
       <r>    -0.5226     0.0000   390.0000 </r>
       <r>    -0.4321     0.0000   390.0000 </r>
       <r>    -0.3416     0.0000   390.0000 </r>
       <r>    -0.2511     0.0000   390.0000 </r>
       <r>    -0.1605     0.0000   390.0000 </r>
       <r>    -0.0700     0.0000   390.0000 </r>
       <r>     0.0205     0.0000   390.0000 </r>
       <r>     0.1111    22.0929   392.0000 </r>
       <r>     0.2016     6.8633   392.6213 </r>
       <r>     0.2921    68.1779   400.1719 </r>
       <r>     0.3826    58.8908   405.5032 </r>
       <r>     0.4732    46.8786   410.3561 </r>
       <r>     0.5637    22.0929   414.0000 </r>
       <r>     0.6542    22.0929   416.0000 </r>
       <r>     0.7447    13.5850   417.2298 </r>
       <r>     0.8353    92.2103   428.3475 </r>
       <r>     0.9258    44.1758   434.0000 </r>
       <r>     1.0163    29.4992   436.6705 </r>
       <r>     1.1069    23.0374   440.0855 </r>
       <r>     1.1974    21.1483   442.0000 </r>
       <r>     1.2879     0.0000   442.0000 </r>
       <r>     1.3784     0.0000   442.0000 </r>
       <r>     1.4690     0.0021   442.0002 </r>
       <r>     1.5595    22.0908   444.0000 </r>
       <r>     1.6500     0.0139   444.0013 </r>
       <r>     1.7405   106.3747   453.6310 </r>
       <r>     1.8311    44.7540   460.0514 </r>
       <r>     1.9216   134.1707   472.1980 </r>
       <r>     2.0121    22.2402   476.0133 </r>
       <r>     2.1026    37.3667   479.3961 </r>
       <r>     2.1932    66.0300   488.0000 </r>
       <r>     2.2837     0.0000   488.0000 </r>
       <r>     2.3742     0.0000   488.0000 </r>
       <r>     2.4648     0.0000   488.0000 </r>
       <r>     2.5553     0.0000   488.0000 </r>
       <r>     2.6458     0.0000   488.0000 </r>
       <r>     2.7363     0.0000   488.0000 </r>
       <r>     2.8269     0.0000   488.0000 </r>
       <r>     2.9174     0.0000   488.0000 </r>
       <r>     3.0079     0.0000   488.0000 </r>
       <r>     3.0984     0.0000   488.0000 </r>
       <r>     3.1890     0.0000   488.0000 </r>
       <r>     3.2795     0.0000   488.0000 </r>
       <r>     3.3700     0.0000   488.0000 </r>
      </set>
     </set>
    </array>
   </total>
  </dos>
 </calculation>
 <structure name="finalpos" >
  <crystal>
   <varray name="basis" >
    <v>      17.59966831       0.00000000       0.00000000 </v>
    <v>      -8.79983416      15.24175986       0.00000000 </v>
    <v>       0.00000000       0.00000000      19.92151445 </v>
   </varray>
   <i name="volume">   5343.94461817 </i>
   <varray name="rec_basis" >
    <v>       0.05681925       0.03280461       0.00000000 </v>
    <v>       0.00000000       0.06560922       0.00000000 </v>
    <v>       0.00000000       0.00000000       0.05019699 </v>
   </varray>
  </crystal>
  <varray name="positions" >
   <v>       0.99943010       0.00005992       0.50000000 </v>
   <v>       0.14164706       0.99871895       0.50000000 </v>
   <v>       0.28492260       0.99841663       0.50000000 </v>
   <v>       0.42850047       0.99871895       0.50000000 </v>
   <v>       0.57205839       0.00005992       0.50000000 </v>
   <v>       0.71530655       0.00214292       0.50000000 </v>
   <v>       0.85826494       0.00214292       0.50000000 </v>
   <v>       0.00080792       0.14408264       0.50000000 </v>
   <v>       0.14259355       0.14244783       0.50000000 </v>
   <v>       0.28470221       0.14112972       0.50000000 </v>
   <v>       0.42785608       0.14112972       0.50000000 </v>
   <v>       0.57128286       0.14244783       0.50000000 </v>
   <v>       0.71470329       0.14408264       0.50000000 </v>
   <v>       0.85805263       0.14467669       0.50000000 </v>
   <v>       0.00095476       0.28713011       0.50000000 </v>
   <v>       0.14372552       0.28645370       0.50000000 </v>
   <v>       0.28540977       0.28469374       0.50000000 </v>
   <v>       0.42724431       0.28306005       0.50000000 </v>
   <v>       0.57071254       0.28469374       0.50000000 </v>
   <v>       0.71415674       0.28645370       0.50000000 </v>
   <v>       0.85760392       0.28713011       0.50000000 </v>
   <v>       0.00054479       0.42966101       0.50000000 </v>
   <v>       0.14422690       0.42957551       0.50000000 </v>
   <v>       0.28730213       0.42918005       0.50000000 </v>
   <v>       0.42797654       0.42569726       0.50000000 </v>
   <v>       0.56914930       0.42569726       0.50000000 </v>
   <v>       0.71330650       0.42918005       0.50000000 </v>
   <v>       0.85677719       0.42957551       0.50000000 </v>
   <v>       0.99928255       0.57181462       0.50000000 </v>
   <v>       0.14396064       0.57181462       0.50000000 </v>
   <v>       0.28862787       0.57181625       0.50000000 </v>
   <v>       0.43350828       0.57215564       0.50037619 </v>
   <v>       0.71045212       0.57215564       0.50000000 </v>
   <v>       0.85461695       0.57181625       0.50000000 </v>
   <v>       0.99707234       0.71370518       0.50000000 </v>
   <v>       0.14255519       0.71368182       0.50000000 </v>
   <v>       0.28806142       0.71370518       0.50000000 </v>
   <v>       0.43464191       0.71382540       0.50000000 </v>
   <v>       0.58510826       0.71626937       0.50000000 </v>
   <v>       0.70258968       0.71626937       0.50000000 </v>
   <v>       0.85061206       0.71382540       0.50000000 </v>
   <v>       0.99777175       0.85613493       0.50000000 </v>
   <v>       0.14160898       0.85591288       0.50000000 </v>
   <v>       0.28573247       0.85591288       0.50000000 </v>
   <v>       0.42979175       0.85613493       0.50000000 </v>
   <v>       0.57342541       0.85758690       0.50000000 </v>
   <v>       0.71640633       0.86138410       0.50000000 </v>
   <v>       0.85559006       0.85758690       0.50000000 </v>
   <v>       0.04754270       0.09547788       0.50000000 </v>
   <v>       0.18957833       0.09405657       0.50000000 </v>
   <v>       0.33254182       0.09365506       0.50000000 </v>
   <v>       0.47590681       0.09405657       0.50000000 </v>
   <v>       0.61936376       0.09547788       0.50000000 </v>
   <v>       0.76280004       0.09719274       0.50000000 </v>
   <v>       0.90582126       0.09719274       0.50000000 </v>
   <v>       0.04854983       0.23934281       0.50000000 </v>
   <v>       0.19048138       0.23782962       0.50000000 </v>
   <v>       0.33234878       0.23634667       0.50000000 </v>
   <v>       0.47542646       0.23634667       0.50000000 </v>
   <v>       0.61877681       0.23782962       0.50000000 </v>
   <v>       0.76222155       0.23934281       0.50000000 </v>
   <v>       0.90562797       0.23982737       0.50000000 </v>
   <v>       0.04871288       0.38232824       0.50000000 </v>
   <v>       0.19188940       0.38184213       0.50000000 </v>
   <v>       0.33352206       0.38013969       0.50000000 </v>
   <v>       0.47472270       0.37801683       0.50000000 </v>
   <v>       0.61804620       0.38013969       0.50000000 </v>
   <v>       0.76138130       0.38184213       0.50000000 </v>
   <v>       0.90504393       0.38232824       0.50000000 </v>
   <v>       0.04810654       0.52478452       0.50000000 </v>
   <v>       0.19263929       0.52476864       0.50000000 </v>
   <v>       0.33696521       0.52455433       0.50000000 </v>
   <v>       0.47833704       0.52146721       0.50000000 </v>
   <v>       0.61455874       0.52146721       0.50000000 </v>
   <v>       0.75901769       0.52455433       0.50000000 </v>
   <v>       0.90355792       0.52476864       0.50000000 </v>
   <v>       0.04642473       0.66685228       0.50000000 </v>
   <v>       0.19185612       0.66685228       0.50000000 </v>
   <v>       0.33777931       0.66688794       0.50000000 </v>
   <v>       0.48615700       0.66710760       0.50000000 </v>
   <v>       0.75237918       0.66710760       0.50000000 </v>
   <v>       0.90053720       0.66688794       0.50000000 </v>
   <v>       0.04582562       0.80879365       0.50000000 </v>
   <v>       0.19009580       0.80876303       0.50000000 </v>
   <v>       0.33439660       0.80879365       0.50000000 </v>
   <v>       0.47844872       0.80897069       0.50000000 </v>
   <v>       0.62209487       0.81129474       0.50000000 </v>
   <v>       0.76062845       0.81129474       0.50000000 </v>
   <v>       0.90195054       0.80897069       0.50000000 </v>
   <v>       0.04629157       0.95154386       0.50000000 </v>
   <v>       0.18948291       0.95113037       0.50000000 </v>
   <v>       0.33307603       0.95113037       0.50000000 </v>
   <v>       0.47668087       0.95154386       0.50000000 </v>
   <v>       0.62015751       0.95313740       0.50000000 </v>
   <v>       0.76355772       0.95568687       0.50000000 </v>
   <v>       0.90440847       0.95313740       0.50000000 </v>
   <v>       0.56830873       0.56518888       0.50000000 </v>
  </varray>
 </structure>
</modeling>
