<?xml version="1.0" encoding="ISO-8859-1"?>
<modeling>
 <generator>
  <i name="program" type="string">vasp </i>
  <i name="version" type="string">5.4.4.18Apr17-6-g9f103f2a35  </i>
  <i name="subversion" type="string">(build Oct 18 2020 22:16:12) gamma-only         parallel </i>
  <i name="platform" type="string">UA-vaughan-2020a </i>
  <i name="date" type="string">2023 03 21 </i>
  <i name="time" type="string">17:44:07 </i>
 </generator>
 <incar>
  <i type="string" name="PREC">accurate</i>
  <i type="int" name="IALGO">    38</i>
  <i type="logical" name="ADDGRID"> T  </i>
  <i type="int" name="NELMIN">     5</i>
  <i type="int" name="IBRION">    -1</i>
  <i name="EDIFF">      0.00000001</i>
  <i name="EDIFFG">     -0.00000001</i>
  <i type="int" name="NSW">     0</i>
  <i type="int" name="ISIF">     2</i>
  <i name="ENCUT">    500.00000000</i>
  <i type="logical" name="LREAL"> F  </i>
  <i type="int" name="ISMEAR">     0</i>
  <i name="SIGMA">      0.01000000</i>
  <i type="logical" name="LWAVE"> F  </i>
  <i type="logical" name="LCHARG"> F  </i>
  <v type="int" name="KPOINT_BSE">    -1     0     0     0</v>
 </incar>
 <structure name="primitive_cell" >
  <crystal>
   <varray name="basis" >
    <v>      17.59966831       0.00000000       0.00000000 </v>
    <v>      -8.79983416      15.24175986       0.00000000 </v>
    <v>       0.00000000       0.00000000      19.92151445 </v>
   </varray>
   <i name="volume">   5343.94461817 </i>
   <varray name="rec_basis" >
    <v>       0.05681925       0.03280461       0.00000000 </v>
    <v>       0.00000000       0.06560922       0.00000000 </v>
    <v>       0.00000000       0.00000000       0.05019699 </v>
   </varray>
  </crystal>
  <varray name="positions" >
   <v>      -0.00056990       0.00005992      -0.50000000 </v>
   <v>      -0.09559153      -0.04686260      -0.50000000 </v>
   <v>       0.04629157      -0.04845614      -0.50000000 </v>
   <v>       0.04754270       0.09547788      -0.50000000 </v>
   <v>      -0.14173506       0.00214292      -0.50000000 </v>
   <v>       0.14259355       0.14244783      -0.50000000 </v>
   <v>       0.14164706      -0.00128105      -0.50000000 </v>
   <v>      -0.00222825      -0.14386507      -0.50000000 </v>
   <v>      -0.14440994      -0.14241310      -0.50000000 </v>
   <v>       0.00080792       0.14408264      -0.50000000 </v>
   <v>       0.18957833       0.09405657      -0.50000000 </v>
   <v>      -0.09417874       0.09719274      -0.50000000 </v>
   <v>      -0.09804946      -0.19102931      -0.50000000 </v>
   <v>      -0.23644228      -0.04431313      -0.50000000 </v>
   <v>      -0.23937155      -0.18870526      -0.50000000 </v>
   <v>       0.19048138       0.23782962      -0.50000000 </v>
   <v>       0.04582562      -0.19120635      -0.50000000 </v>
   <v>       0.18948291      -0.04886963      -0.50000000 </v>
   <v>       0.04854983       0.23934281      -0.50000000 </v>
   <v>      -0.28359367      -0.13861590      -0.50000000 </v>
   <v>       0.28470221       0.14112972      -0.50000000 </v>
   <v>      -0.14194737       0.14467669      -0.50000000 </v>
   <v>      -0.14938794      -0.28617460      -0.50000000 </v>
   <v>       0.14160898      -0.14408712      -0.50000000 </v>
   <v>       0.14372552       0.28645370      -0.50000000 </v>
   <v>      -0.00292766      -0.28629482      -0.50000000 </v>
   <v>       0.28540977       0.28469374      -0.50000000 </v>
   <v>      -0.28469345       0.00271111      -0.50000000 </v>
   <v>       0.00095476       0.28713011      -0.50000000 </v>
   <v>       0.28492260      -0.00158337      -0.50000000 </v>
   <v>      -0.29741032      -0.28373063      -0.50000000 </v>
   <v>      -0.09946280      -0.33311206      -0.50000000 </v>
   <v>       0.33234878       0.23634667      -0.50000000 </v>
   <v>      -0.23719996       0.09719274      -0.50000000 </v>
   <v>       0.33254182       0.09365506      -0.50000000 </v>
   <v>      -0.09437203       0.23982737      -0.50000000 </v>
   <v>      -0.24762082      -0.33289240      -0.50000000 </v>
   <v>      -0.37790513      -0.18870526      -0.50000000 </v>
   <v>       0.19188940       0.38184213      -0.50000000 </v>
   <v>       0.19009580      -0.19123697      -0.50000000 </v>
   <v>      -0.37984249      -0.04686260      -0.50000000 </v>
   <v>       0.04642473      -0.33314772      -0.50000000 </v>
   <v>       0.33352206       0.38013969      -0.50000000 </v>
   <v>       0.04871288       0.38232824      -0.50000000 </v>
   <v>       0.33307603      -0.04886963      -0.50000000 </v>
   <v>      -0.41489174      -0.28373063      -0.50000000 </v>
   <v>      -0.42657459      -0.14241310      -0.50000000 </v>
   <v>       0.42724431       0.28306005      -0.50000000 </v>
   <v>      -0.14538305      -0.42818375      -0.50000000 </v>
   <v>      -0.28529671       0.14408264      -0.50000000 </v>
   <v>      -0.28954788      -0.42784436      -0.50000000 </v>
   <v>       0.42785608       0.14112972      -0.50000000 </v>
   <v>      -0.14239608       0.28713011      -0.50000000 </v>
   <v>       0.14422690       0.42957551      -0.50000000 </v>
   <v>       0.28730213       0.42918005      -0.50000000 </v>
   <v>       0.14255519      -0.28631818      -0.50000000 </v>
   <v>       0.28573247      -0.14408712      -0.50000000 </v>
   <v>      -0.24098231      -0.47544567      -0.50000000 </v>
   <v>       0.47542646       0.23634667      -0.50000000 </v>
   <v>      -0.23777845       0.23934281      -0.50000000 </v>
   <v>       0.42797654       0.42569726      -0.50000000 </v>
   <v>      -0.42794161       0.00005992      -0.50000000 </v>
   <v>      -0.00071745      -0.42818538      -0.50000000 </v>
   <v>       0.00054479       0.42966101      -0.50000000 </v>
   <v>       0.42850047      -0.00128105      -0.50000000 </v>
   <v>      -0.43169127      -0.43481112      -0.50000000 </v>
   <v>       0.47472270       0.37801683      -0.50000000 </v>
   <v>      -0.09644208      -0.47523136      -0.50000000 </v>
   <v>      -0.38063624       0.09547788      -0.50000000 </v>
   <v>       0.47590681       0.09405657      -0.50000000 </v>
   <v>      -0.09495607       0.38232824      -0.50000000 </v>
   <v>      -0.38544126      -0.47853279      -0.50000000 </v>
   <v>       0.48615700      -0.33289240      -0.50000000 </v>
   <v>       0.47844872      -0.19102931      -0.50000000 </v>
   <v>       0.19263929      -0.47523136      -0.50000000 </v>
   <v>       0.33696521      -0.47544567      -0.50000000 </v>
   <v>       0.19185612      -0.33314772      -0.50000000 </v>
   <v>       0.33439660      -0.19120635      -0.50000000 </v>
   <v>       0.43464191      -0.28617460      -0.50000000 </v>
   <v>      -0.28669350       0.42918005      -0.50000000 </v>
   <v>      -0.42928746       0.28469374      -0.50000000 </v>
   <v>      -0.28584326       0.28645370      -0.50000000 </v>
   <v>       0.28862787      -0.42818375      -0.50000000 </v>
   <v>       0.28806142      -0.28629482      -0.50000000 </v>
   <v>       0.47668087      -0.04845614      -0.50000000 </v>
   <v>       0.47833704      -0.47853279      -0.50000000 </v>
   <v>       0.04810654      -0.47521548      -0.50000000 </v>
   <v>       0.43313209      -0.42784436      -0.50000000 </v>
   <v>       0.42979175      -0.14386507      -0.50000000 </v>
   <v>      -0.43085070       0.42569726      -0.50000000 </v>
   <v>      -0.14322281       0.42957551      -0.50000000 </v>
   <v>      -0.42871714       0.14244783      -0.50000000 </v>
   <v>       0.14396064      -0.42818538      -0.50000000 </v>
   <v>      -0.23861870       0.38184213      -0.50000000 </v>
   <v>      -0.38122319       0.23782962      -0.50000000 </v>
   <v>      -0.38195380       0.38013969      -0.50000000 </v>
   <v>       0.33777931      -0.33311206      -0.50000000 </v>
  </varray>
 </structure>
 <varray name="primitive_index" >
  <v type="int" >        1 </v>
  <v type="int" >       96 </v>
  <v type="int" >       90 </v>
  <v type="int" >       49 </v>
  <v type="int" >        7 </v>
  <v type="int" >        9 </v>
  <v type="int" >        2 </v>
  <v type="int" >       42 </v>
  <v type="int" >       48 </v>
  <v type="int" >        8 </v>
  <v type="int" >       50 </v>
  <v type="int" >       55 </v>
  <v type="int" >       89 </v>
  <v type="int" >       95 </v>
  <v type="int" >       88 </v>
  <v type="int" >       57 </v>
  <v type="int" >       83 </v>
  <v type="int" >       91 </v>
  <v type="int" >       56 </v>
  <v type="int" >       47 </v>
  <v type="int" >       10 </v>
  <v type="int" >       14 </v>
  <v type="int" >       41 </v>
  <v type="int" >       43 </v>
  <v type="int" >       16 </v>
  <v type="int" >       35 </v>
  <v type="int" >       17 </v>
  <v type="int" >        6 </v>
  <v type="int" >       15 </v>
  <v type="int" >        3 </v>
  <v type="int" >       40 </v>
  <v type="int" >       82 </v>
  <v type="int" >       58 </v>
  <v type="int" >       54 </v>
  <v type="int" >       51 </v>
  <v type="int" >       62 </v>
  <v type="int" >       81 </v>
  <v type="int" >       87 </v>
  <v type="int" >       64 </v>
  <v type="int" >       84 </v>
  <v type="int" >       94 </v>
  <v type="int" >       77 </v>
  <v type="int" >       65 </v>
  <v type="int" >       63 </v>
  <v type="int" >       92 </v>
  <v type="int" >       39 </v>
  <v type="int" >       46 </v>
  <v type="int" >       18 </v>
  <v type="int" >       34 </v>
  <v type="int" >       13 </v>
  <v type="int" >       33 </v>
  <v type="int" >       11 </v>
  <v type="int" >       21 </v>
  <v type="int" >       23 </v>
  <v type="int" >       24 </v>
  <v type="int" >       36 </v>
  <v type="int" >       44 </v>
  <v type="int" >       75 </v>
  <v type="int" >       59 </v>
  <v type="int" >       61 </v>
  <v type="int" >       25 </v>
  <v type="int" >        5 </v>
  <v type="int" >       29 </v>
  <v type="int" >       22 </v>
  <v type="int" >        4 </v>
  <v type="int" >       97 </v>
  <v type="int" >       66 </v>
  <v type="int" >       76 </v>
  <v type="int" >       53 </v>
  <v type="int" >       52 </v>
  <v type="int" >       69 </v>
  <v type="int" >       74 </v>
  <v type="int" >       80 </v>
  <v type="int" >       86 </v>
  <v type="int" >       71 </v>
  <v type="int" >       72 </v>
  <v type="int" >       78 </v>
  <v type="int" >       85 </v>
  <v type="int" >       38 </v>
  <v type="int" >       27 </v>
  <v type="int" >       19 </v>
  <v type="int" >       20 </v>
  <v type="int" >       31 </v>
  <v type="int" >       37 </v>
  <v type="int" >       93 </v>
  <v type="int" >       73 </v>
  <v type="int" >       70 </v>
  <v type="int" >       32 </v>
  <v type="int" >       45 </v>
  <v type="int" >       26 </v>
  <v type="int" >       28 </v>
  <v type="int" >       12 </v>
  <v type="int" >       30 </v>
  <v type="int" >       68 </v>
  <v type="int" >       60 </v>
  <v type="int" >       67 </v>
  <v type="int" >       79 </v>
 </varray>
 <kpoints>
  <generation param="Gamma">
   <v type="int" name="divisions">       1        1        1 </v>
   <v name="usershift">      0.00000000       0.00000000       0.00000000 </v>
   <v name="genvec1">      1.00000000      -0.00000000       0.00000000 </v>
   <v name="genvec2">      0.00000000       1.00000000       0.00000000 </v>
   <v name="genvec3">      0.00000000       0.00000000       1.00000000 </v>
   <v name="shift">      0.00000000       0.00000000       0.00000000 </v>
  </generation>
  <varray name="kpointlist" >
   <v>       0.00000000       0.00000000       0.00000000 </v>
  </varray>
  <varray name="weights" >
   <v>       1.00000000 </v>
  </varray>
 </kpoints>
 <parameters>
  <separator name="general" >
   <i type="string" name="SYSTEM">unknown system</i>
   <i type="logical" name="LCOMPAT"> F  </i>
  </separator>
  <separator name="electronic" >
   <i type="string" name="PREC">accura</i>
   <i name="ENMAX">    500.00000000</i>
   <i name="ENAUG">    644.87300000</i>
   <i name="EDIFF">      0.00000001</i>
   <i type="int" name="IALGO">    38</i>
   <i type="int" name="IWAVPR">    10</i>
   <i type="int" name="NBANDS">   244</i>
   <i name="NELECT">    388.00000000</i>
   <i type="int" name="TURBO">     0</i>
   <i type="int" name="IRESTART">     0</i>
   <i type="int" name="NREBOOT">     0</i>
   <i type="int" name="NMIN">     0</i>
   <i name="EREF">      0.00000000</i>
   <separator name="electronic smearing" >
    <i type="int" name="ISMEAR">     0</i>
    <i name="SIGMA">      0.01000000</i>
    <i name="KSPACING">      0.50000000</i>
    <i type="logical" name="KGAMMA"> T  </i>
   </separator>
   <separator name="electronic projectors" >
    <i type="logical" name="LREAL"> F  </i>
    <v name="ROPT">      0.00000000      0.00000000      0.00000000</v>
    <i type="int" name="LMAXPAW">  -100</i>
    <i type="int" name="LMAXMIX">     2</i>
    <i type="logical" name="NLSPLINE"> F  </i>
   </separator>
   <separator name="electronic startup" >
    <i type="int" name="ISTART">     0</i>
    <i type="int" name="ICHARG">     2</i>
    <i type="int" name="INIWAV">     1</i>
   </separator>
   <separator name="electronic spin" >
    <i type="int" name="ISPIN">     1</i>
    <i type="logical" name="LNONCOLLINEAR"> F  </i>
    <v name="MAGMOM">      1.00000000      1.00000000      1.00000000      1.00000000      1.00000000      1.00000000      1.00000000      1.00000000      1.00000000      1.00000000      1.00000000      1.00000000      1.00000000      1.00000000      1.00000000      1.00000000      1.00000000      1.00000000      1.00000000      1.00000000
      1.00000000      1.00000000      1.00000000      1.00000000      1.00000000      1.00000000      1.00000000      1.00000000      1.00000000      1.00000000      1.00000000      1.00000000      1.00000000      1.00000000      1.00000000      1.00000000      1.00000000      1.00000000      1.00000000      1.00000000
      1.00000000      1.00000000      1.00000000      1.00000000      1.00000000      1.00000000      1.00000000      1.00000000      1.00000000      1.00000000      1.00000000      1.00000000      1.00000000      1.00000000      1.00000000      1.00000000      1.00000000      1.00000000      1.00000000      1.00000000
      1.00000000      1.00000000      1.00000000      1.00000000      1.00000000      1.00000000      1.00000000      1.00000000      1.00000000      1.00000000      1.00000000      1.00000000      1.00000000      1.00000000      1.00000000      1.00000000      1.00000000      1.00000000      1.00000000      1.00000000
      1.00000000      1.00000000      1.00000000      1.00000000      1.00000000      1.00000000      1.00000000      1.00000000      1.00000000      1.00000000      1.00000000      1.00000000      1.00000000      1.00000000      1.00000000      1.00000000      1.00000000</v>
    <i name="NUPDOWN">     -1.00000000</i>
    <i type="logical" name="LSORBIT"> F  </i>
    <v name="SAXIS">      0.00000000      0.00000000      1.00000000</v>
    <i type="logical" name="LSPIRAL"> F  </i>
    <v name="QSPIRAL">      0.00000000      0.00000000      0.00000000</v>
    <i type="logical" name="LZEROZ"> F  </i>
   </separator>
   <separator name="electronic exchange-correlation" >
    <i type="logical" name="LASPH"> F  </i>
    <i type="logical" name="LMETAGGA"> F  </i>
   </separator>
   <separator name="electronic convergence" >
    <i type="int" name="NELM">    60</i>
    <i type="int" name="NELMDL">    -5</i>
    <i type="int" name="NELMIN">     5</i>
    <i name="ENINI">    500.00000000</i>
    <separator name="electronic convergence detail" >
     <i type="logical" name="LDIAG"> T  </i>
     <i type="logical" name="LSUBROT"> F  </i>
     <i name="WEIMIN">      0.00000000</i>
     <i name="EBREAK">      0.00000000</i>
     <i name="DEPER">      0.30000000</i>
     <i type="int" name="NRMM">     4</i>
     <i name="TIME">      0.40000000</i>
    </separator>
   </separator>
   <separator name="electronic mixer" >
    <i name="AMIX">      0.40000000</i>
    <i name="BMIX">      1.00000000</i>
    <i name="AMIN">      0.10000000</i>
    <i name="AMIX_MAG">      1.60000000</i>
    <i name="BMIX_MAG">      1.00000000</i>
    <separator name="electronic mixer details" >
     <i type="int" name="IMIX">     4</i>
     <i type="logical" name="MIXFIRST"> F  </i>
     <i type="int" name="MAXMIX">   -45</i>
     <i name="WC">    100.00000000</i>
     <i type="int" name="INIMIX">     1</i>
     <i type="int" name="MIXPRE">     1</i>
     <i type="int" name="MREMOVE">     5</i>
    </separator>
   </separator>
   <separator name="electronic dipolcorrection" >
    <i type="logical" name="LDIPOL"> F  </i>
    <i type="logical" name="LMONO"> F  </i>
    <i type="int" name="IDIPOL">     0</i>
    <i name="EPSILON">      1.00000000</i>
    <v name="DIPOL">   -100.00000000   -100.00000000   -100.00000000</v>
    <i name="EFIELD">      0.00000000</i>
   </separator>
  </separator>
  <separator name="grids" >
   <i type="int" name="NGX">   128</i>
   <i type="int" name="NGY">   128</i>
   <i type="int" name="NGZ">   150</i>
   <i type="int" name="NGXF">   256</i>
   <i type="int" name="NGYF">   256</i>
   <i type="int" name="NGZF">   300</i>
   <i type="logical" name="ADDGRID"> T  </i>
  </separator>
  <separator name="ionic" >
   <i type="int" name="NSW">     0</i>
   <i type="int" name="IBRION">    -1</i>
   <i type="int" name="MDALGO">     0</i>
   <i type="int" name="ISIF">     2</i>
   <i name="PSTRESS">      0.00000000</i>
   <i name="EDIFFG">     -0.00000001</i>
   <i type="int" name="NFREE">     0</i>
   <i name="POTIM">      0.50000000</i>
   <i name="SMASS">     -3.00000000</i>
   <i name="SCALEE">      1.00000000</i>
  </separator>
  <separator name="ionic md" >
   <i name="TEBEG">      0.00010000</i>
   <i name="TEEND">      0.00010000</i>
   <i type="int" name="NBLOCK">     1</i>
   <i type="int" name="KBLOCK">     1</i>
   <i type="int" name="NPACO">   256</i>
   <i name="APACO">     16.00000000</i>
  </separator>
  <separator name="symmetry" >
   <i type="int" name="ISYM">     2</i>
   <i name="SYMPREC">      0.00001000</i>
  </separator>
  <separator name="dos" >
   <i type="int" name="LORBIT">     0</i>
   <v name="RWIGS">     -1.00000000     -1.00000000     -1.00000000</v>
   <i type="int" name="NEDOS">   301</i>
   <i name="EMIN">     10.00000000</i>
   <i name="EMAX">    -10.00000000</i>
   <i name="EFERMI">      0.00000000</i>
  </separator>
  <separator name="writing" >
   <i type="int" name="NWRITE">     2</i>
   <i type="logical" name="LWAVE"> F  </i>
   <i type="logical" name="LDOWNSAMPLE"> F  </i>
   <i type="logical" name="LCHARG"> F  </i>
   <i type="logical" name="LPARD"> F  </i>
   <i type="logical" name="LVTOT"> F  </i>
   <i type="logical" name="LVHAR"> F  </i>
   <i type="logical" name="LELF"> F  </i>
   <i type="logical" name="LOPTICS"> F  </i>
   <v name="STM">      0.00000000      0.00000000      0.00000000      0.00000000      0.00000000      0.00000000      0.00000000</v>
  </separator>
  <separator name="performance" >
   <i type="int" name="NPAR">     4</i>
   <i type="int" name="NSIM">     4</i>
   <i type="int" name="NBLK">    -1</i>
   <i type="logical" name="LPLANE"> T  </i>
   <i type="logical" name="LSCALAPACK"> T  </i>
   <i type="logical" name="LSCAAWARE"> F  </i>
   <i type="logical" name="LSCALU"> F  </i>
   <i type="logical" name="LASYNC"> F  </i>
   <i type="logical" name="LORBITALREAL"> F  </i>
  </separator>
  <separator name="miscellaneous" >
   <i type="int" name="IDIOT">     3</i>
   <i type="int" name="ISPECIAL">     0</i>
   <i type="logical" name="LMUSIC"> F  </i>
   <v name="POMASS">     10.81100000     14.00100000     12.01100000</v>
   <v name="DARWINR">      0.00000000      0.00000000      0.00000000</v>
   <v name="DARWINV">      1.00000000      1.00000000      1.00000000</v>
   <i type="logical" name="LCORR"> T  </i>
  </separator>
  <i type="logical" name="GGA_COMPAT"> T  </i>
  <i type="logical" name="LBERRY"> F  </i>
  <i type="int" name="ICORELEVEL">     0</i>
  <i type="logical" name="LDAU"> F  </i>
  <i type="int" name="I_CONSTRAINED_M">     0</i>
  <separator name="electronic exchange-correlation" >
   <i type="string" name="GGA">--</i>
   <i type="int" name="VOSKOWN">     0</i>
   <i type="logical" name="LHFCALC"> F  </i>
   <i type="string" name="PRECFOCK"></i>
   <i type="logical" name="LSYMGRAD"> F  </i>
   <i type="logical" name="LHFONE"> F  </i>
   <i type="logical" name="LRHFCALC"> F  </i>
   <i type="logical" name="LTHOMAS"> F  </i>
   <i type="logical" name="LMODELHF"> F  </i>
   <i name="ENCUT4O">     -1.00000000</i>
   <i type="int" name="EXXOEP">     0</i>
   <i type="int" name="FOURORBIT">     0</i>
   <i name="AEXX">      0.00000000</i>
   <i name="HFALPHA">      0.00000000</i>
   <i name="MCALPHA">      0.00000000</i>
   <i name="ALDAX">      1.00000000</i>
   <i name="AGGAX">      1.00000000</i>
   <i name="ALDAC">      1.00000000</i>
   <i name="AGGAC">      1.00000000</i>
   <i type="int" name="NKREDX">     1</i>
   <i type="int" name="NKREDY">     1</i>
   <i type="int" name="NKREDZ">     1</i>
   <i type="logical" name="SHIFTRED"> F  </i>
   <i type="logical" name="ODDONLY"> F  </i>
   <i type="logical" name="EVENONLY"> F  </i>
   <i type="int" name="LMAXFOCK">     0</i>
   <i type="int" name="NMAXFOCKAE">     0</i>
   <i type="logical" name="LFOCKAEDFT"> F  </i>
   <i name="HFSCREEN">      0.00000000</i>
   <i name="HFSCREENC">      0.00000000</i>
   <i type="int" name="NBANDSGWLOW">     0</i>
  </separator>
  <separator name="vdW DFT" >
   <i type="logical" name="LUSE_VDW"> F  </i>
   <i name="Zab_VDW">     -0.84910000</i>
   <i name="PARAM1">      0.12340000</i>
   <i name="PARAM2">      1.00000000</i>
   <i name="PARAM3">      0.00000000</i>
  </separator>
  <separator name="model GW" >
   <i type="int" name="MODEL_GW">     0</i>
   <i name="MODEL_EPS0">     33.05532754</i>
   <i name="MODEL_ALPHA">      1.00000000</i>
  </separator>
  <separator name="linear response parameters" >
   <i type="logical" name="LEPSILON"> F  </i>
   <i type="logical" name="LRPA"> F  </i>
   <i type="logical" name="LNABLA"> F  </i>
   <i type="logical" name="LVEL"> F  </i>
   <i type="int" name="KINTER">     0</i>
   <i name="CSHIFT">      0.10000000</i>
   <i name="OMEGAMAX">     -1.00000000</i>
   <i name="DEG_THRESHOLD">      0.00200000</i>
   <i name="RTIME">     -0.10000000</i>
   <i name="WPLASMAI">      0.00000000</i>
   <v name="DFIELD">      0.00000000      0.00000000      0.00000000</v>
   <v name="WPLASMA">      0.00000000      0.00000000      0.00000000      0.00000000      0.00000000      0.00000000      0.00000000      0.00000000      0.00000000</v>
  </separator>
  <separator name="orbital magnetization" >
   <i type="logical" name="NUCIND"> F  </i>
   <v name="MAGPOS">      0.00000000      0.00000000      0.00000000</v>
   <i type="logical" name="LNICSALL"> T  </i>
   <i type="logical" name="ORBITALMAG"> F  </i>
   <i type="logical" name="LMAGBLOCH"> F  </i>
   <i type="logical" name="LCHIMAG"> F  </i>
   <i type="logical" name="LGAUGE"> T  </i>
   <i type="int" name="MAGATOM">     0</i>
   <v name="MAGDIPOL">      0.00000000      0.00000000      0.00000000</v>
   <v name="AVECCONST">      0.00000000      0.00000000      0.00000000</v>
  </separator>
  <separator name="response functions" >
   <i type="logical" name="LADDER"> F  </i>
   <i type="logical" name="LRPAFORCE"> F  </i>
   <i type="logical" name="LFXC"> F  </i>
   <i type="logical" name="LHARTREE"> T  </i>
   <i type="int" name="IBSE">     0</i>
   <v type="int" name="KPOINT">    -1     0     0     0</v>
   <i type="logical" name="LTCTE"> F  </i>
   <i type="logical" name="LTETE"> F  </i>
   <i type="logical" name="LTRIPLET"> F  </i>
   <i type="logical" name="LFXCEPS"> F  </i>
   <i type="logical" name="LFXHEG"> F  </i>
   <i type="int" name="NATURALO">     2</i>
   <i type="logical" name="L2ORDER"> F  </i>
   <i type="logical" name="LMP2LT"> F  </i>
   <i type="logical" name="LUSEW"> F  </i>
   <i name="ENCUTGW">     -2.00000000</i>
   <i name="ENCUTGWSOFT">     -2.00000000</i>
   <i name="ENCUTLF">     -1.00000000</i>
   <i type="int" name="LMAXMP2">    -1</i>
   <i name="SCISSOR">      0.00000000</i>
   <i type="int" name="NOMEGA">     0</i>
   <i type="int" name="NOMEGAR">     0</i>
   <i type="int" name="NBANDSGW">    -1</i>
   <i type="int" name="NBANDSO">    -1</i>
   <i type="int" name="NBANDSV">    -1</i>
   <i type="int" name="NELM">     1</i>
   <i type="int" name="NELMHF">     1</i>
   <i type="int" name="DIM">     3</i>
   <i type="int" name="ANTIRES">     0</i>
   <i name="OMEGAMAX">    -30.00000000</i>
   <i name="OMEGAMIN">    -30.00000000</i>
   <i name="OMEGATL">   -200.00000000</i>
   <i type="int" name="OMEGAGRID">   140</i>
   <i name="CSHIFT">     -0.10000000</i>
   <i type="logical" name="SELFENERGY"> F  </i>
   <i type="logical" name="LSPECTRAL"> F  </i>
   <i type="logical" name="LSPECTRALGW"> F  </i>
   <i type="logical" name="LSINGLES"> F  </i>
   <i type="logical" name="LFERMIGW"> F  </i>
   <i type="logical" name="ODDONLYGW"> F  </i>
   <i type="logical" name="EVENONLYGW"> F  </i>
   <i type="int" name="NKREDLFX">     1</i>
   <i type="int" name="NKREDLFY">     1</i>
   <i type="int" name="NKREDLFZ">     1</i>
   <i type="int" name="MAXMEM">  2800</i>
   <i type="int" name="TELESCOPE">     0</i>
   <i type="int" name="TAUPAR">     1</i>
   <i type="int" name="OMEGAPAR">    -1</i>
   <i name="LAMBDA">      1.00000000</i>
  </separator>
  <separator name="External order field" >
   <i name="OFIELD_KAPPA">      0.00000000</i>
   <v name="OFIELD_K">      0.00000000      0.00000000      0.00000000</v>
   <i name="OFIELD_Q6_NEAR">      0.00000000</i>
   <i name="OFIELD_Q6_FAR">      0.00000000</i>
   <i name="OFIELD_A">      0.00000000</i>
  </separator>
 </parameters>
 <atominfo>
  <atoms>      97 </atoms>
  <types>       3 </types>
  <array name="atoms" >
   <dimension dim="1">ion</dimension>
   <field type="string">element</field>
   <field type="int">atomtype</field>
   <set>
    <rc><c>B </c><c>   1</c></rc>
    <rc><c>B </c><c>   1</c></rc>
    <rc><c>B </c><c>   1</c></rc>
    <rc><c>B </c><c>   1</c></rc>
    <rc><c>B </c><c>   1</c></rc>
    <rc><c>B </c><c>   1</c></rc>
    <rc><c>B </c><c>   1</c></rc>
    <rc><c>B </c><c>   1</c></rc>
    <rc><c>B </c><c>   1</c></rc>
    <rc><c>B </c><c>   1</c></rc>
    <rc><c>B </c><c>   1</c></rc>
    <rc><c>B </c><c>   1</c></rc>
    <rc><c>B </c><c>   1</c></rc>
    <rc><c>B </c><c>   1</c></rc>
    <rc><c>B </c><c>   1</c></rc>
    <rc><c>B </c><c>   1</c></rc>
    <rc><c>B </c><c>   1</c></rc>
    <rc><c>B </c><c>   1</c></rc>
    <rc><c>B </c><c>   1</c></rc>
    <rc><c>B </c><c>   1</c></rc>
    <rc><c>B </c><c>   1</c></rc>
    <rc><c>B </c><c>   1</c></rc>
    <rc><c>B </c><c>   1</c></rc>
    <rc><c>B </c><c>   1</c></rc>
    <rc><c>B </c><c>   1</c></rc>
    <rc><c>B </c><c>   1</c></rc>
    <rc><c>B </c><c>   1</c></rc>
    <rc><c>B </c><c>   1</c></rc>
    <rc><c>B </c><c>   1</c></rc>
    <rc><c>B </c><c>   1</c></rc>
    <rc><c>B </c><c>   1</c></rc>
    <rc><c>B </c><c>   1</c></rc>
    <rc><c>B </c><c>   1</c></rc>
    <rc><c>B </c><c>   1</c></rc>
    <rc><c>B </c><c>   1</c></rc>
    <rc><c>B </c><c>   1</c></rc>
    <rc><c>B </c><c>   1</c></rc>
    <rc><c>B </c><c>   1</c></rc>
    <rc><c>B </c><c>   1</c></rc>
    <rc><c>B </c><c>   1</c></rc>
    <rc><c>B </c><c>   1</c></rc>
    <rc><c>B </c><c>   1</c></rc>
    <rc><c>B </c><c>   1</c></rc>
    <rc><c>B </c><c>   1</c></rc>
    <rc><c>B </c><c>   1</c></rc>
    <rc><c>B </c><c>   1</c></rc>
    <rc><c>B </c><c>   1</c></rc>
    <rc><c>B </c><c>   1</c></rc>
    <rc><c>N </c><c>   2</c></rc>
    <rc><c>N </c><c>   2</c></rc>
    <rc><c>N </c><c>   2</c></rc>
    <rc><c>N </c><c>   2</c></rc>
    <rc><c>N </c><c>   2</c></rc>
    <rc><c>N </c><c>   2</c></rc>
    <rc><c>N </c><c>   2</c></rc>
    <rc><c>N </c><c>   2</c></rc>
    <rc><c>N </c><c>   2</c></rc>
    <rc><c>N </c><c>   2</c></rc>
    <rc><c>N </c><c>   2</c></rc>
    <rc><c>N </c><c>   2</c></rc>
    <rc><c>N </c><c>   2</c></rc>
    <rc><c>N </c><c>   2</c></rc>
    <rc><c>N </c><c>   2</c></rc>
    <rc><c>N </c><c>   2</c></rc>
    <rc><c>N </c><c>   2</c></rc>
    <rc><c>N </c><c>   2</c></rc>
    <rc><c>N </c><c>   2</c></rc>
    <rc><c>N </c><c>   2</c></rc>
    <rc><c>N </c><c>   2</c></rc>
    <rc><c>N </c><c>   2</c></rc>
    <rc><c>N </c><c>   2</c></rc>
    <rc><c>N </c><c>   2</c></rc>
    <rc><c>N </c><c>   2</c></rc>
    <rc><c>N </c><c>   2</c></rc>
    <rc><c>N </c><c>   2</c></rc>
    <rc><c>N </c><c>   2</c></rc>
    <rc><c>N </c><c>   2</c></rc>
    <rc><c>N </c><c>   2</c></rc>
    <rc><c>N </c><c>   2</c></rc>
    <rc><c>N </c><c>   2</c></rc>
    <rc><c>N </c><c>   2</c></rc>
    <rc><c>N </c><c>   2</c></rc>
    <rc><c>N </c><c>   2</c></rc>
    <rc><c>N </c><c>   2</c></rc>
    <rc><c>N </c><c>   2</c></rc>
    <rc><c>N </c><c>   2</c></rc>
    <rc><c>N </c><c>   2</c></rc>
    <rc><c>N </c><c>   2</c></rc>
    <rc><c>N </c><c>   2</c></rc>
    <rc><c>N </c><c>   2</c></rc>
    <rc><c>N </c><c>   2</c></rc>
    <rc><c>N </c><c>   2</c></rc>
    <rc><c>N </c><c>   2</c></rc>
    <rc><c>N </c><c>   2</c></rc>
    <rc><c>N </c><c>   2</c></rc>
    <rc><c>N </c><c>   2</c></rc>
    <rc><c>C </c><c>   3</c></rc>
   </set>
  </array>
  <array name="atomtypes" >
   <dimension dim="1">type</dimension>
   <field type="int">atomspertype</field>
   <field type="string">element</field>
   <field>mass</field>
   <field>valence</field>
   <field type="string">pseudopotential</field>
   <set>
    <rc><c>  48</c><c>B </c><c>     10.81100000</c><c>      3.00000000</c><c>  PAW_PBE B 06Sep2000                   </c></rc>
    <rc><c>  48</c><c>N </c><c>     14.00100000</c><c>      5.00000000</c><c>  PAW_PBE N 08Apr2002                   </c></rc>
    <rc><c>   1</c><c>C </c><c>     12.01100000</c><c>      4.00000000</c><c>  PAW_PBE C 08Apr2002                   </c></rc>
   </set>
  </array>
 </atominfo>
 <structure name="initialpos" >
  <crystal>
   <varray name="basis" >
    <v>      17.59966831       0.00000000       0.00000000 </v>
    <v>      -8.79983416      15.24175986       0.00000000 </v>
    <v>       0.00000000       0.00000000      19.92151445 </v>
   </varray>
   <i name="volume">   5343.94461817 </i>
   <varray name="rec_basis" >
    <v>       0.05681925       0.03280461       0.00000000 </v>
    <v>       0.00000000       0.06560922       0.00000000 </v>
    <v>       0.00000000       0.00000000       0.05019699 </v>
   </varray>
  </crystal>
  <varray name="positions" >
   <v>       0.99943010       0.00005992       0.50000000 </v>
   <v>       0.14164706       0.99871895       0.50000000 </v>
   <v>       0.28492260       0.99841663       0.50000000 </v>
   <v>       0.42850047       0.99871895       0.50000000 </v>
   <v>       0.57205839       0.00005992       0.50000000 </v>
   <v>       0.71530655       0.00271111       0.50000000 </v>
   <v>       0.85826494       0.00214292       0.50000000 </v>
   <v>       0.00080792       0.14408264       0.50000000 </v>
   <v>       0.14259355       0.14244783       0.50000000 </v>
   <v>       0.28470221       0.14112972       0.50000000 </v>
   <v>       0.42785608       0.14112972       0.50000000 </v>
   <v>       0.57128286       0.14244783       0.50000000 </v>
   <v>       0.71470329       0.14408264       0.50000000 </v>
   <v>       0.85805263       0.14467669       0.50000000 </v>
   <v>       0.00095476       0.28713011       0.50000000 </v>
   <v>       0.14372552       0.28645370       0.50000000 </v>
   <v>       0.28540977       0.28469374       0.50000000 </v>
   <v>       0.42724431       0.28306005       0.50000000 </v>
   <v>       0.57071254       0.28469374       0.50000000 </v>
   <v>       0.71415674       0.28645370       0.50000000 </v>
   <v>       0.85760392       0.28713011       0.50000000 </v>
   <v>       0.00054479       0.42966101       0.50000000 </v>
   <v>       0.14422690       0.42957551       0.50000000 </v>
   <v>       0.28730213       0.42918005       0.50000000 </v>
   <v>       0.42797654       0.42569726       0.50000000 </v>
   <v>       0.56914930       0.42569726       0.50000000 </v>
   <v>       0.71330650       0.42918005       0.50000000 </v>
   <v>       0.85677719       0.42957551       0.50000000 </v>
   <v>       0.99928255       0.57181462       0.50000000 </v>
   <v>       0.14396064       0.57181462       0.50000000 </v>
   <v>       0.28862787       0.57181625       0.50000000 </v>
   <v>       0.43313209       0.57215564       0.50000000 </v>
   <v>       0.71045212       0.57215564       0.50000000 </v>
   <v>       0.85461695       0.57181625       0.50000000 </v>
   <v>       0.99707234       0.71370518       0.50000000 </v>
   <v>       0.14255519       0.71368182       0.50000000 </v>
   <v>       0.28806142       0.71370518       0.50000000 </v>
   <v>       0.43464191       0.71382540       0.50000000 </v>
   <v>       0.58510826       0.71626937       0.50000000 </v>
   <v>       0.70258968       0.71626937       0.50000000 </v>
   <v>       0.85061206       0.71382540       0.50000000 </v>
   <v>       0.99777175       0.85613493       0.50000000 </v>
   <v>       0.14160898       0.85591288       0.50000000 </v>
   <v>       0.28573247       0.85591288       0.50000000 </v>
   <v>       0.42979175       0.85613493       0.50000000 </v>
   <v>       0.57342541       0.85758690       0.50000000 </v>
   <v>       0.71640633       0.86138410       0.50000000 </v>
   <v>       0.85559006       0.85758690       0.50000000 </v>
   <v>       0.04754270       0.09547788       0.50000000 </v>
   <v>       0.18957833       0.09405657       0.50000000 </v>
   <v>       0.33254182       0.09365506       0.50000000 </v>
   <v>       0.47590681       0.09405657       0.50000000 </v>
   <v>       0.61936376       0.09547788       0.50000000 </v>
   <v>       0.76280004       0.09719274       0.50000000 </v>
   <v>       0.90582126       0.09719274       0.50000000 </v>
   <v>       0.04854983       0.23934281       0.50000000 </v>
   <v>       0.19048138       0.23782962       0.50000000 </v>
   <v>       0.33234878       0.23634667       0.50000000 </v>
   <v>       0.47542646       0.23634667       0.50000000 </v>
   <v>       0.61877681       0.23782962       0.50000000 </v>
   <v>       0.76222155       0.23934281       0.50000000 </v>
   <v>       0.90562797       0.23982737       0.50000000 </v>
   <v>       0.04871288       0.38232824       0.50000000 </v>
   <v>       0.19188940       0.38184213       0.50000000 </v>
   <v>       0.33352206       0.38013969       0.50000000 </v>
   <v>       0.47472270       0.37801683       0.50000000 </v>
   <v>       0.61804620       0.38013969       0.50000000 </v>
   <v>       0.76138130       0.38184213       0.50000000 </v>
   <v>       0.90504393       0.38232824       0.50000000 </v>
   <v>       0.04810654       0.52478452       0.50000000 </v>
   <v>       0.19263929       0.52476864       0.50000000 </v>
   <v>       0.33696521       0.52455433       0.50000000 </v>
   <v>       0.47833704       0.52146721       0.50000000 </v>
   <v>       0.61455874       0.52146721       0.50000000 </v>
   <v>       0.75901769       0.52455433       0.50000000 </v>
   <v>       0.90355792       0.52476864       0.50000000 </v>
   <v>       0.04642473       0.66685228       0.50000000 </v>
   <v>       0.19185612       0.66685228       0.50000000 </v>
   <v>       0.33777931       0.66688794       0.50000000 </v>
   <v>       0.48615700       0.66710760       0.50000000 </v>
   <v>       0.75237918       0.66710760       0.50000000 </v>
   <v>       0.90053720       0.66688794       0.50000000 </v>
   <v>       0.04582562       0.80879365       0.50000000 </v>
   <v>       0.19009580       0.80876303       0.50000000 </v>
   <v>       0.33439660       0.80879365       0.50000000 </v>
   <v>       0.47844872       0.80897069       0.50000000 </v>
   <v>       0.62209487       0.81129474       0.50000000 </v>
   <v>       0.76062845       0.81129474       0.50000000 </v>
   <v>       0.90195054       0.80897069       0.50000000 </v>
   <v>       0.04629157       0.95154386       0.50000000 </v>
   <v>       0.18948291       0.95113037       0.50000000 </v>
   <v>       0.33307603       0.95113037       0.50000000 </v>
   <v>       0.47668087       0.95154386       0.50000000 </v>
   <v>       0.62015751       0.95313740       0.50000000 </v>
   <v>       0.76355772       0.95568687       0.50000000 </v>
   <v>       0.90440847       0.95313740       0.50000000 </v>
   <v>       0.56830873       0.56518888       0.50000000 </v>
  </varray>
 </structure>
 <calculation>
  <scstep>
   <time name="dav">    2.35    2.38</time>
   <time name="total">    2.72    2.82</time>
   <energy>
    <i name="alphaZ">    156.50993408 </i>
    <i name="ewald">  58206.80495354 </i>
    <i name="hartreedc"> -70374.23414226 </i>
    <i name="XCdc">   1302.10854171 </i>
    <i name="pawpsdc">  12033.28670802 </i>
    <i name="pawaedc"> -12049.96799276 </i>
    <i name="eentropy">     -0.00000000 </i>
    <i name="bandstr">   -904.57340526 </i>
    <i name="atom">  16260.93880140 </i>
    <i name="e_fr_energy">   4630.87339846 </i>
    <i name="e_wo_entrp">   4630.87339846 </i>
    <i name="e_0_energy">   4630.87339846 </i>
   </energy>
  </scstep>
  <scstep>
   <time name="dav">    2.98    3.03</time>
   <time name="total">    2.98    3.03</time>
   <energy>
    <i name="e_fr_energy">    216.79063034 </i>
    <i name="e_wo_entrp">    216.79063034 </i>
    <i name="e_0_energy">    216.79063034 </i>
   </energy>
  </scstep>
  <scstep>
   <time name="dav">    2.47    2.52</time>
   <time name="total">    2.47    2.52</time>
   <energy>
    <i name="e_fr_energy">   -867.44531395 </i>
    <i name="e_wo_entrp">   -867.44531395 </i>
    <i name="e_0_energy">   -867.44531395 </i>
   </energy>
  </scstep>
  <scstep>
   <time name="dav">    2.44    2.48</time>
   <time name="total">    2.44    2.48</time>
   <energy>
    <i name="e_fr_energy">   -934.16720613 </i>
    <i name="e_wo_entrp">   -934.16720613 </i>
    <i name="e_0_energy">   -934.16720613 </i>
   </energy>
  </scstep>
  <scstep>
   <time name="dav">    2.51    2.56</time>
   <time name="total">    2.95    3.00</time>
   <energy>
    <i name="e_fr_energy">   -935.77965083 </i>
    <i name="e_wo_entrp">   -935.77965083 </i>
    <i name="e_0_energy">   -935.77965083 </i>
   </energy>
  </scstep>
  <scstep>
   <time name="dav">    2.32    2.34</time>
   <time name="total">    3.13    3.17</time>
   <energy>
    <i name="e_fr_energy">   -858.72678209 </i>
    <i name="e_wo_entrp">   -858.72678209 </i>
    <i name="e_0_energy">   -858.72678209 </i>
   </energy>
  </scstep>
  <scstep>
   <time name="dav">    2.34    2.37</time>
   <time name="total">    3.14    3.18</time>
   <energy>
    <i name="e_fr_energy">   -850.19733503 </i>
    <i name="e_wo_entrp">   -850.19733503 </i>
    <i name="e_0_energy">   -850.19733503 </i>
   </energy>
  </scstep>
  <scstep>
   <time name="dav">    2.27    2.30</time>
   <time name="total">    3.06    3.11</time>
   <energy>
    <i name="e_fr_energy">   -845.92566551 </i>
    <i name="e_wo_entrp">   -845.92566449 </i>
    <i name="e_0_energy">   -845.92566500 </i>
   </energy>
  </scstep>
  <scstep>
   <time name="dav">    2.29    2.32</time>
   <time name="total">    3.09    3.13</time>
   <energy>
    <i name="e_fr_energy">   -845.80053135 </i>
    <i name="e_wo_entrp">   -845.80053135 </i>
    <i name="e_0_energy">   -845.80053135 </i>
   </energy>
  </scstep>
  <scstep>
   <time name="dav">    2.37    2.40</time>
   <time name="total">    3.17    3.21</time>
   <energy>
    <i name="e_fr_energy">   -845.63870387 </i>
    <i name="e_wo_entrp">   -845.63870387 </i>
    <i name="e_0_energy">   -845.63870387 </i>
   </energy>
  </scstep>
  <scstep>
   <time name="dav">    2.22    2.24</time>
   <time name="total">    3.02    3.06</time>
   <energy>
    <i name="e_fr_energy">   -845.58631705 </i>
    <i name="e_wo_entrp">   -845.58631705 </i>
    <i name="e_0_energy">   -845.58631705 </i>
   </energy>
  </scstep>
  <scstep>
   <time name="dav">    2.25    2.27</time>
   <time name="total">    3.05    3.10</time>
   <energy>
    <i name="e_fr_energy">   -845.57358132 </i>
    <i name="e_wo_entrp">   -845.57358132 </i>
    <i name="e_0_energy">   -845.57358132 </i>
   </energy>
  </scstep>
  <scstep>
   <time name="dav">    2.24    2.26</time>
   <time name="total">    3.04    3.09</time>
   <energy>
    <i name="e_fr_energy">   -845.58424457 </i>
    <i name="e_wo_entrp">   -845.58424457 </i>
    <i name="e_0_energy">   -845.58424457 </i>
   </energy>
  </scstep>
  <scstep>
   <time name="dav">    2.23    2.25</time>
   <time name="total">    3.03    3.07</time>
   <energy>
    <i name="e_fr_energy">   -845.59383843 </i>
    <i name="e_wo_entrp">   -845.59383843 </i>
    <i name="e_0_energy">   -845.59383843 </i>
   </energy>
  </scstep>
  <scstep>
   <time name="dav">    2.17    2.20</time>
   <time name="total">    2.98    3.02</time>
   <energy>
    <i name="e_fr_energy">   -845.62501048 </i>
    <i name="e_wo_entrp">   -845.62501048 </i>
    <i name="e_0_energy">   -845.62501048 </i>
   </energy>
  </scstep>
  <scstep>
   <time name="dav">    2.20    2.22</time>
   <time name="total">    3.01    3.04</time>
   <energy>
    <i name="e_fr_energy">   -845.64139752 </i>
    <i name="e_wo_entrp">   -845.64139752 </i>
    <i name="e_0_energy">   -845.64139752 </i>
   </energy>
  </scstep>
  <scstep>
   <time name="dav">    2.30    2.32</time>
   <time name="total">    3.11    3.16</time>
   <energy>
    <i name="e_fr_energy">   -845.64775953 </i>
    <i name="e_wo_entrp">   -845.64775953 </i>
    <i name="e_0_energy">   -845.64775953 </i>
   </energy>
  </scstep>
  <scstep>
   <time name="dav">    2.17    2.20</time>
   <time name="total">    2.98    3.05</time>
   <energy>
    <i name="e_fr_energy">   -845.65088109 </i>
    <i name="e_wo_entrp">   -845.65088109 </i>
    <i name="e_0_energy">   -845.65088109 </i>
   </energy>
  </scstep>
  <scstep>
   <time name="dav">    2.32    2.34</time>
   <time name="total">    3.13    3.17</time>
   <energy>
    <i name="e_fr_energy">   -845.65190165 </i>
    <i name="e_wo_entrp">   -845.65190165 </i>
    <i name="e_0_energy">   -845.65190165 </i>
   </energy>
  </scstep>
  <scstep>
   <time name="dav">    2.23    2.25</time>
   <time name="total">    3.04    3.08</time>
   <energy>
    <i name="e_fr_energy">   -845.65232245 </i>
    <i name="e_wo_entrp">   -845.65232245 </i>
    <i name="e_0_energy">   -845.65232245 </i>
   </energy>
  </scstep>
  <scstep>
   <time name="dav">    2.25    2.27</time>
   <time name="total">    3.06    3.09</time>
   <energy>
    <i name="e_fr_energy">   -845.65251814 </i>
    <i name="e_wo_entrp">   -845.65251814 </i>
    <i name="e_0_energy">   -845.65251814 </i>
   </energy>
  </scstep>
  <scstep>
   <time name="dav">    2.18    2.20</time>
   <time name="total">    2.99    3.02</time>
   <energy>
    <i name="e_fr_energy">   -845.65263635 </i>
    <i name="e_wo_entrp">   -845.65263635 </i>
    <i name="e_0_energy">   -845.65263635 </i>
   </energy>
  </scstep>
  <scstep>
   <time name="dav">    2.26    2.27</time>
   <time name="total">    3.07    3.10</time>
   <energy>
    <i name="e_fr_energy">   -845.65270948 </i>
    <i name="e_wo_entrp">   -845.65270948 </i>
    <i name="e_0_energy">   -845.65270948 </i>
   </energy>
  </scstep>
  <scstep>
   <time name="dav">    2.28    2.30</time>
   <time name="total">    3.09    3.11</time>
   <energy>
    <i name="e_fr_energy">   -845.65274881 </i>
    <i name="e_wo_entrp">   -845.65274881 </i>
    <i name="e_0_energy">   -845.65274881 </i>
   </energy>
  </scstep>
  <scstep>
   <time name="dav">    2.26    2.28</time>
   <time name="total">    3.08    3.11</time>
   <energy>
    <i name="e_fr_energy">   -845.65276616 </i>
    <i name="e_wo_entrp">   -845.65276616 </i>
    <i name="e_0_energy">   -845.65276616 </i>
   </energy>
  </scstep>
  <scstep>
   <time name="dav">    2.24    2.26</time>
   <time name="total">    3.05    3.08</time>
   <energy>
    <i name="e_fr_energy">   -845.65278257 </i>
    <i name="e_wo_entrp">   -845.65278257 </i>
    <i name="e_0_energy">   -845.65278257 </i>
   </energy>
  </scstep>
  <scstep>
   <time name="dav">    2.18    2.20</time>
   <time name="total">    3.00    3.03</time>
   <energy>
    <i name="e_fr_energy">   -845.65278574 </i>
    <i name="e_wo_entrp">   -845.65278574 </i>
    <i name="e_0_energy">   -845.65278574 </i>
   </energy>
  </scstep>
  <scstep>
   <time name="dav">    1.96    1.98</time>
   <time name="total">    2.78    2.81</time>
   <energy>
    <i name="e_fr_energy">   -845.65278703 </i>
    <i name="e_wo_entrp">   -845.65278703 </i>
    <i name="e_0_energy">   -845.65278703 </i>
   </energy>
  </scstep>
  <scstep>
   <time name="dav">    1.82    1.84</time>
   <time name="total">    2.64    2.68</time>
   <energy>
    <i name="e_fr_energy">   -845.65278736 </i>
    <i name="e_wo_entrp">   -845.65278736 </i>
    <i name="e_0_energy">   -845.65278736 </i>
   </energy>
  </scstep>
  <scstep>
   <time name="dav">    1.66    1.68</time>
   <time name="total">    2.48    2.52</time>
   <energy>
    <i name="e_fr_energy">   -845.65278747 </i>
    <i name="e_wo_entrp">   -845.65278747 </i>
    <i name="e_0_energy">   -845.65278747 </i>
   </energy>
  </scstep>
  <scstep>
   <time name="dav">    1.66    1.68</time>
   <time name="total">    2.49    2.52</time>
   <energy>
    <i name="e_fr_energy">   -845.65278753 </i>
    <i name="e_wo_entrp">   -845.65278753 </i>
    <i name="e_0_energy">   -845.65278753 </i>
   </energy>
  </scstep>
  <scstep>
   <time name="dav">    1.69    1.70</time>
   <time name="total">    2.50    2.54</time>
   <energy>
    <i name="e_fr_energy">   -845.65278755 </i>
    <i name="e_wo_entrp">   -845.65278755 </i>
    <i name="e_0_energy">   -845.65278755 </i>
   </energy>
  </scstep>
  <scstep>
   <time name="dav">    1.80    1.82</time>
   <time name="total">    2.17    2.20</time>
   <energy>
    <i name="alphaZ">    156.50993408 </i>
    <i name="ewald">  58206.80495354 </i>
    <i name="hartreedc"> -72314.28676501 </i>
    <i name="XCdc">   1369.72326830 </i>
    <i name="pawpsdc">  44018.62101308 </i>
    <i name="pawaedc"> -44053.96278003 </i>
    <i name="eentropy">     -0.00000000 </i>
    <i name="bandstr">  -4490.00121291 </i>
    <i name="atom">  16260.93880140 </i>
    <i name="e_fr_energy">   -845.65278756 </i>
    <i name="e_wo_entrp">   -845.65278756 </i>
    <i name="e_0_energy">   -845.65278756 </i>
   </energy>
  </scstep>
  <structure>
   <crystal>
    <varray name="basis" >
     <v>      17.59966831       0.00000000       0.00000000 </v>
     <v>      -8.79983416      15.24175986       0.00000000 </v>
     <v>       0.00000000       0.00000000      19.92151445 </v>
    </varray>
    <i name="volume">   5343.94461817 </i>
    <varray name="rec_basis" >
     <v>       0.05681925       0.03280461       0.00000000 </v>
     <v>       0.00000000       0.06560922       0.00000000 </v>
     <v>       0.00000000       0.00000000       0.05019699 </v>
    </varray>
   </crystal>
   <varray name="positions" >
    <v>       0.99943010       0.00005992       0.50000000 </v>
    <v>       0.14164706       0.99871895       0.50000000 </v>
    <v>       0.28492260       0.99841663       0.50000000 </v>
    <v>       0.42850047       0.99871895       0.50000000 </v>
    <v>       0.57205839       0.00005992       0.50000000 </v>
    <v>       0.71530655       0.00271111       0.50000000 </v>
    <v>       0.85826494       0.00214292       0.50000000 </v>
    <v>       0.00080792       0.14408264       0.50000000 </v>
    <v>       0.14259355       0.14244783       0.50000000 </v>
    <v>       0.28470221       0.14112972       0.50000000 </v>
    <v>       0.42785608       0.14112972       0.50000000 </v>
    <v>       0.57128286       0.14244783       0.50000000 </v>
    <v>       0.71470329       0.14408264       0.50000000 </v>
    <v>       0.85805263       0.14467669       0.50000000 </v>
    <v>       0.00095476       0.28713011       0.50000000 </v>
    <v>       0.14372552       0.28645370       0.50000000 </v>
    <v>       0.28540977       0.28469374       0.50000000 </v>
    <v>       0.42724431       0.28306005       0.50000000 </v>
    <v>       0.57071254       0.28469374       0.50000000 </v>
    <v>       0.71415674       0.28645370       0.50000000 </v>
    <v>       0.85760392       0.28713011       0.50000000 </v>
    <v>       0.00054479       0.42966101       0.50000000 </v>
    <v>       0.14422690       0.42957551       0.50000000 </v>
    <v>       0.28730213       0.42918005       0.50000000 </v>
    <v>       0.42797654       0.42569726       0.50000000 </v>
    <v>       0.56914930       0.42569726       0.50000000 </v>
    <v>       0.71330650       0.42918005       0.50000000 </v>
    <v>       0.85677719       0.42957551       0.50000000 </v>
    <v>       0.99928255       0.57181462       0.50000000 </v>
    <v>       0.14396064       0.57181462       0.50000000 </v>
    <v>       0.28862787       0.57181625       0.50000000 </v>
    <v>       0.43313209       0.57215564       0.50000000 </v>
    <v>       0.71045212       0.57215564       0.50000000 </v>
    <v>       0.85461695       0.57181625       0.50000000 </v>
    <v>       0.99707234       0.71370518       0.50000000 </v>
    <v>       0.14255519       0.71368182       0.50000000 </v>
    <v>       0.28806142       0.71370518       0.50000000 </v>
    <v>       0.43464191       0.71382540       0.50000000 </v>
    <v>       0.58510826       0.71626937       0.50000000 </v>
    <v>       0.70258968       0.71626937       0.50000000 </v>
    <v>       0.85061206       0.71382540       0.50000000 </v>
    <v>       0.99777175       0.85613493       0.50000000 </v>
    <v>       0.14160898       0.85591288       0.50000000 </v>
    <v>       0.28573247       0.85591288       0.50000000 </v>
    <v>       0.42979175       0.85613493       0.50000000 </v>
    <v>       0.57342541       0.85758690       0.50000000 </v>
    <v>       0.71640633       0.86138410       0.50000000 </v>
    <v>       0.85559006       0.85758690       0.50000000 </v>
    <v>       0.04754270       0.09547788       0.50000000 </v>
    <v>       0.18957833       0.09405657       0.50000000 </v>
    <v>       0.33254182       0.09365506       0.50000000 </v>
    <v>       0.47590681       0.09405657       0.50000000 </v>
    <v>       0.61936376       0.09547788       0.50000000 </v>
    <v>       0.76280004       0.09719274       0.50000000 </v>
    <v>       0.90582126       0.09719274       0.50000000 </v>
    <v>       0.04854983       0.23934281       0.50000000 </v>
    <v>       0.19048138       0.23782962       0.50000000 </v>
    <v>       0.33234878       0.23634667       0.50000000 </v>
    <v>       0.47542646       0.23634667       0.50000000 </v>
    <v>       0.61877681       0.23782962       0.50000000 </v>
    <v>       0.76222155       0.23934281       0.50000000 </v>
    <v>       0.90562797       0.23982737       0.50000000 </v>
    <v>       0.04871288       0.38232824       0.50000000 </v>
    <v>       0.19188940       0.38184213       0.50000000 </v>
    <v>       0.33352206       0.38013969       0.50000000 </v>
    <v>       0.47472270       0.37801683       0.50000000 </v>
    <v>       0.61804620       0.38013969       0.50000000 </v>
    <v>       0.76138130       0.38184213       0.50000000 </v>
    <v>       0.90504393       0.38232824       0.50000000 </v>
    <v>       0.04810654       0.52478452       0.50000000 </v>
    <v>       0.19263929       0.52476864       0.50000000 </v>
    <v>       0.33696521       0.52455433       0.50000000 </v>
    <v>       0.47833704       0.52146721       0.50000000 </v>
    <v>       0.61455874       0.52146721       0.50000000 </v>
    <v>       0.75901769       0.52455433       0.50000000 </v>
    <v>       0.90355792       0.52476864       0.50000000 </v>
    <v>       0.04642473       0.66685228       0.50000000 </v>
    <v>       0.19185612       0.66685228       0.50000000 </v>
    <v>       0.33777931       0.66688794       0.50000000 </v>
    <v>       0.48615700       0.66710760       0.50000000 </v>
    <v>       0.75237918       0.66710760       0.50000000 </v>
    <v>       0.90053720       0.66688794       0.50000000 </v>
    <v>       0.04582562       0.80879365       0.50000000 </v>
    <v>       0.19009580       0.80876303       0.50000000 </v>
    <v>       0.33439660       0.80879365       0.50000000 </v>
    <v>       0.47844872       0.80897069       0.50000000 </v>
    <v>       0.62209487       0.81129474       0.50000000 </v>
    <v>       0.76062845       0.81129474       0.50000000 </v>
    <v>       0.90195054       0.80897069       0.50000000 </v>
    <v>       0.04629157       0.95154386       0.50000000 </v>
    <v>       0.18948291       0.95113037       0.50000000 </v>
    <v>       0.33307603       0.95113037       0.50000000 </v>
    <v>       0.47668087       0.95154386       0.50000000 </v>
    <v>       0.62015751       0.95313740       0.50000000 </v>
    <v>       0.76355772       0.95568687       0.50000000 </v>
    <v>       0.90440847       0.95313740       0.50000000 </v>
    <v>       0.56830873       0.56518888       0.50000000 </v>
   </varray>
  </structure>
  <varray name="forces" >
   <v>      -0.04496702      -0.03221320      -0.00000000 </v>
   <v>      -0.02382597      -0.01096436      -0.00000000 </v>
   <v>      -0.00110144      -0.01370539      -0.00000000 </v>
   <v>       0.02134662      -0.01279016      -0.00000000 </v>
   <v>       0.02607469      -0.04870530       0.00000000 </v>
   <v>       0.21803431      -0.49489031      -0.00000000 </v>
   <v>       0.00381020      -0.08006764      -0.00000000 </v>
   <v>      -0.00519775      -0.02789395      -0.00000000 </v>
   <v>      -0.02836271      -0.02680003      -0.00000000 </v>
   <v>      -0.00896607      -0.03389093      -0.00000000 </v>
   <v>       0.00580875      -0.03325305      -0.00000000 </v>
   <v>       0.02111532      -0.02279568       0.00000000 </v>
   <v>      -0.02486965       0.00678188      -0.00000000 </v>
   <v>       0.04213762      -0.03090723      -0.00000000 </v>
   <v>      -0.00091182      -0.02757669      -0.00000000 </v>
   <v>       0.00710626      -0.04385717      -0.00000000 </v>
   <v>      -0.03079127      -0.00233626      -0.00000000 </v>
   <v>      -0.00132144      -0.09297775      -0.00000000 </v>
   <v>       0.02749888      -0.00078725      -0.00000000 </v>
   <v>      -0.01064953      -0.04061746      -0.00000000 </v>
   <v>       0.00913350      -0.02280222      -0.00000000 </v>
   <v>       0.00177880       0.00975824      -0.00000000 </v>
   <v>      -0.02322133       0.00013856      -0.00000000 </v>
   <v>       0.05821348      -0.13731341      -0.00000000 </v>
   <v>      -0.11212972      -0.19899048      -0.00000000 </v>
   <v>       0.11060632      -0.19845000      -0.00000000 </v>
   <v>      -0.05937916      -0.13580953      -0.00000000 </v>
   <v>       0.02404716       0.00200201      -0.00000000 </v>
   <v>       0.01667120       0.03053704       0.00000000 </v>
   <v>      -0.01598835       0.02987305      -0.00000000 </v>
   <v>      -0.08424437       0.12872584      -0.00000000 </v>
   <v>       0.05101592       0.39911901      -0.00000000 </v>
   <v>      -0.05164138       0.40015081      -0.00000000 </v>
   <v>       0.08422736       0.13029642      -0.00000000 </v>
   <v>      -0.00974351       0.02329353      -0.00000000 </v>
   <v>      -0.00018682       0.02814997      -0.00000000 </v>
   <v>       0.00914962       0.02216685      -0.00000000 </v>
   <v>       0.08967040       0.04177086      -0.00000000 </v>
   <v>       1.36506446       1.25690080      -0.00000000 </v>
   <v>      -1.36535148       1.25680507      -0.00000000 </v>
   <v>      -0.08859629       0.04514033      -0.00000000 </v>
   <v>      -0.04949119      -0.00793349      -0.00000000 </v>
   <v>      -0.01398434      -0.00461331      -0.00000000 </v>
   <v>       0.01267281      -0.00500673      -0.00000000 </v>
   <v>       0.04734052      -0.00877250      -0.00000000 </v>
   <v>       0.17599255       0.03794551       0.00000000 </v>
   <v>      -0.01475638      -0.20897714      -0.00000000 </v>
   <v>      -0.15594906       0.03917846      -0.00000000 </v>
   <v>       0.02683105       0.03602749       0.00000000 </v>
   <v>       0.01173657       0.02434881      -0.00000000 </v>
   <v>       0.00152802       0.02795559       0.00000000 </v>
   <v>      -0.00712485       0.02479597       0.00000000 </v>
   <v>      -0.01333227       0.03749943      -0.00000000 </v>
   <v>      -0.05245802       0.22456445      -0.00000000 </v>
   <v>       0.00150871       0.04586777       0.00000000 </v>
   <v>       0.01281375       0.03708578      -0.00000000 </v>
   <v>      -0.00916745       0.00442188       0.00000000 </v>
   <v>       0.01648740       0.03594976      -0.00000000 </v>
   <v>      -0.01377037       0.03541341       0.00000000 </v>
   <v>       0.01263359       0.00138250      -0.00000000 </v>
   <v>      -0.01382548       0.02568777      -0.00000000 </v>
   <v>      -0.00822548       0.02038058       0.00000000 </v>
   <v>       0.00860999       0.02387700       0.00000000 </v>
   <v>       0.04652812       0.05906621      -0.00000000 </v>
   <v>      -0.02205517      -0.20043510      -0.00000000 </v>
   <v>       0.00072684       0.10940210      -0.00000000 </v>
   <v>       0.02343167      -0.20187991      -0.00000000 </v>
   <v>      -0.04601789       0.05603799       0.00000000 </v>
   <v>      -0.01130719       0.02135381      -0.00000000 </v>
   <v>      -0.00040257       0.00686622      -0.00000000 </v>
   <v>       0.02455471      -0.00822654      -0.00000000 </v>
   <v>       0.18890353       0.11134222       0.00000000 </v>
   <v>       1.02307635      -1.56463457      -0.00000000 </v>
   <v>      -1.02267417      -1.56518303      -0.00000000 </v>
   <v>      -0.18860725       0.10985363       0.00000000 </v>
   <v>      -0.02480386      -0.00982747      -0.00000000 </v>
   <v>       0.01058353      -0.03453579       0.00000000 </v>
   <v>      -0.01004613      -0.03385741       0.00000000 </v>
   <v>      -0.06018186      -0.06651808      -0.00000000 </v>
   <v>      -0.27409506       0.00640555      -0.00000000 </v>
   <v>       0.27320059       0.00560206       0.00000000 </v>
   <v>       0.06080668      -0.06852450      -0.00000000 </v>
   <v>       0.03824159      -0.01368398       0.00000000 </v>
   <v>       0.00072710      -0.01135797      -0.00000000 </v>
   <v>      -0.03658137      -0.01261057      -0.00000000 </v>
   <v>      -0.08739865      -0.00792028       0.00000000 </v>
   <v>      -0.89499850       0.23384008       0.00000000 </v>
   <v>       0.89170970       0.23609957       0.00000000 </v>
   <v>       0.08903950      -0.01546926      -0.00000000 </v>
   <v>       0.03501768       0.01799408      -0.00000000 </v>
   <v>       0.01143125      -0.00315089      -0.00000000 </v>
   <v>      -0.00938639      -0.00254437      -0.00000000 </v>
   <v>      -0.03575639       0.02154183      -0.00000000 </v>
   <v>      -0.14839132       0.19109541      -0.00000000 </v>
   <v>      -0.14633478       0.14468479       0.00000000 </v>
   <v>       0.12412616       0.12044793      -0.00000000 </v>
   <v>      -0.00020029      -0.11956751      -0.00000000 </v>
  </varray>
  <varray name="stress" >
   <v>     -10.63868633       0.01837580       0.00000000 </v>
   <v>       0.01837581       3.06934434       0.00000000 </v>
   <v>       0.00000000       0.00000000      -0.42556131 </v>
  </varray>
  <energy>
   <i name="e_fr_energy">   -845.65278756 </i>
   <i name="e_wo_entrp">   -845.65278756 </i>
   <i name="e_0_energy">     -0.00000000 </i>
  </energy>
  <time name="totalsc">  103.45  104.94</time>
  <eigenvalues>
   <array>
    <dimension dim="1">band</dimension>
    <dimension dim="2">kpoint</dimension>
    <dimension dim="3">spin</dimension>
    <field>eigene</field>
    <field>occ</field>
    <set>
     <set comment="spin 1">
      <set comment="kpoint 1">
       <r>  -22.5401    1.0000 </r>
       <r>  -22.0218    1.0000 </r>
       <r>  -21.7751    1.0000 </r>
       <r>  -21.7461    1.0000 </r>
       <r>  -21.6984    1.0000 </r>
       <r>  -21.6542    1.0000 </r>
       <r>  -21.6144    1.0000 </r>
       <r>  -21.2353    1.0000 </r>
       <r>  -21.0716    1.0000 </r>
       <r>  -21.0025    1.0000 </r>
       <r>  -20.9692    1.0000 </r>
       <r>  -20.9271    1.0000 </r>
       <r>  -20.8771    1.0000 </r>
       <r>  -20.7462    1.0000 </r>
       <r>  -20.7058    1.0000 </r>
       <r>  -20.6629    1.0000 </r>
       <r>  -20.5925    1.0000 </r>
       <r>  -20.5670    1.0000 </r>
       <r>  -20.4280    1.0000 </r>
       <r>  -19.9813    1.0000 </r>
       <r>  -19.9224    1.0000 </r>
       <r>  -19.8057    1.0000 </r>
       <r>  -19.7676    1.0000 </r>
       <r>  -19.7387    1.0000 </r>
       <r>  -19.7367    1.0000 </r>
       <r>  -19.7011    1.0000 </r>
       <r>  -19.6996    1.0000 </r>
       <r>  -19.6437    1.0000 </r>
       <r>  -19.6398    1.0000 </r>
       <r>  -19.6303    1.0000 </r>
       <r>  -19.4935    1.0000 </r>
       <r>  -19.4070    1.0000 </r>
       <r>  -19.3664    1.0000 </r>
       <r>  -19.3566    1.0000 </r>
       <r>  -19.2921    1.0000 </r>
       <r>  -19.2346    1.0000 </r>
       <r>  -19.1074    1.0000 </r>
       <r>  -19.0010    1.0000 </r>
       <r>  -18.9318    1.0000 </r>
       <r>  -18.8797    1.0000 </r>
       <r>  -18.8492    1.0000 </r>
       <r>  -18.8387    1.0000 </r>
       <r>  -18.7684    1.0000 </r>
       <r>  -18.7536    1.0000 </r>
       <r>  -18.7242    1.0000 </r>
       <r>  -18.7144    1.0000 </r>
       <r>  -18.6888    1.0000 </r>
       <r>  -18.4405    1.0000 </r>
       <r>  -14.1399    1.0000 </r>
       <r>  -13.1825    1.0000 </r>
       <r>  -13.1561    1.0000 </r>
       <r>  -13.1103    1.0000 </r>
       <r>  -13.1042    1.0000 </r>
       <r>  -13.0832    1.0000 </r>
       <r>  -13.0162    1.0000 </r>
       <r>  -12.9598    1.0000 </r>
       <r>  -12.9567    1.0000 </r>
       <r>  -12.9376    1.0000 </r>
       <r>  -12.8044    1.0000 </r>
       <r>  -12.7604    1.0000 </r>
       <r>  -12.6011    1.0000 </r>
       <r>  -12.5056    1.0000 </r>
       <r>  -12.4854    1.0000 </r>
       <r>  -12.3785    1.0000 </r>
       <r>  -12.3087    1.0000 </r>
       <r>  -12.2963    1.0000 </r>
       <r>  -12.1754    1.0000 </r>
       <r>  -11.9022    1.0000 </r>
       <r>  -11.8863    1.0000 </r>
       <r>  -11.7678    1.0000 </r>
       <r>  -11.7675    1.0000 </r>
       <r>  -11.7516    1.0000 </r>
       <r>  -11.7411    1.0000 </r>
       <r>  -11.6915    1.0000 </r>
       <r>  -11.6571    1.0000 </r>
       <r>  -11.6280    1.0000 </r>
       <r>  -11.5417    1.0000 </r>
       <r>  -11.4216    1.0000 </r>
       <r>  -11.1995    1.0000 </r>
       <r>  -11.1258    1.0000 </r>
       <r>  -11.0859    1.0000 </r>
       <r>  -11.0584    1.0000 </r>
       <r>  -10.9650    1.0000 </r>
       <r>  -10.9088    1.0000 </r>
       <r>  -10.6855    1.0000 </r>
       <r>  -10.4601    1.0000 </r>
       <r>  -10.4302    1.0000 </r>
       <r>  -10.3516    1.0000 </r>
       <r>  -10.2545    1.0000 </r>
       <r>  -10.2079    1.0000 </r>
       <r>   -9.8911    1.0000 </r>
       <r>   -9.7691    1.0000 </r>
       <r>   -9.7644    1.0000 </r>
       <r>   -9.7252    1.0000 </r>
       <r>   -9.6774    1.0000 </r>
       <r>   -9.5870    1.0000 </r>
       <r>   -9.5433    1.0000 </r>
       <r>   -9.4995    1.0000 </r>
       <r>   -9.4609    1.0000 </r>
       <r>   -9.3525    1.0000 </r>
       <r>   -9.3464    1.0000 </r>
       <r>   -9.2906    1.0000 </r>
       <r>   -9.2617    1.0000 </r>
       <r>   -9.2554    1.0000 </r>
       <r>   -9.2509    1.0000 </r>
       <r>   -9.2385    1.0000 </r>
       <r>   -9.2252    1.0000 </r>
       <r>   -9.2237    1.0000 </r>
       <r>   -9.2054    1.0000 </r>
       <r>   -9.2010    1.0000 </r>
       <r>   -9.2008    1.0000 </r>
       <r>   -9.1981    1.0000 </r>
       <r>   -9.1574    1.0000 </r>
       <r>   -9.1355    1.0000 </r>
       <r>   -9.1108    1.0000 </r>
       <r>   -9.1100    1.0000 </r>
       <r>   -9.1015    1.0000 </r>
       <r>   -9.0461    1.0000 </r>
       <r>   -8.9887    1.0000 </r>
       <r>   -8.8458    1.0000 </r>
       <r>   -8.7958    1.0000 </r>
       <r>   -8.6550    1.0000 </r>
       <r>   -8.5047    1.0000 </r>
       <r>   -8.4821    1.0000 </r>
       <r>   -8.4425    1.0000 </r>
       <r>   -8.3286    1.0000 </r>
       <r>   -8.2254    1.0000 </r>
       <r>   -8.2009    1.0000 </r>
       <r>   -8.1949    1.0000 </r>
       <r>   -8.1707    1.0000 </r>
       <r>   -8.1492    1.0000 </r>
       <r>   -8.1231    1.0000 </r>
       <r>   -8.0396    1.0000 </r>
       <r>   -7.9698    1.0000 </r>
       <r>   -7.9521    1.0000 </r>
       <r>   -7.8735    1.0000 </r>
       <r>   -7.8484    1.0000 </r>
       <r>   -7.8465    1.0000 </r>
       <r>   -7.8032    1.0000 </r>
       <r>   -7.7997    1.0000 </r>
       <r>   -7.7987    1.0000 </r>
       <r>   -7.7398    1.0000 </r>
       <r>   -7.7335    1.0000 </r>
       <r>   -7.7145    1.0000 </r>
       <r>   -7.6777    1.0000 </r>
       <r>   -7.6762    1.0000 </r>
       <r>   -7.6581    1.0000 </r>
       <r>   -7.6373    1.0000 </r>
       <r>   -7.6306    1.0000 </r>
       <r>   -7.4416    1.0000 </r>
       <r>   -7.4373    1.0000 </r>
       <r>   -7.4274    1.0000 </r>
       <r>   -7.3882    1.0000 </r>
       <r>   -7.3523    1.0000 </r>
       <r>   -7.2727    1.0000 </r>
       <r>   -6.8334    1.0000 </r>
       <r>   -6.7581    1.0000 </r>
       <r>   -6.6222    1.0000 </r>
       <r>   -6.6035    1.0000 </r>
       <r>   -6.5430    1.0000 </r>
       <r>   -6.5365    1.0000 </r>
       <r>   -6.5058    1.0000 </r>
       <r>   -6.4903    1.0000 </r>
       <r>   -6.4596    1.0000 </r>
       <r>   -6.4527    1.0000 </r>
       <r>   -6.4420    1.0000 </r>
       <r>   -6.4406    1.0000 </r>
       <r>   -6.4062    1.0000 </r>
       <r>   -6.4054    1.0000 </r>
       <r>   -6.3600    1.0000 </r>
       <r>   -6.3460    1.0000 </r>
       <r>   -6.3179    1.0000 </r>
       <r>   -6.1106    1.0000 </r>
       <r>   -5.9657    1.0000 </r>
       <r>   -5.9284    1.0000 </r>
       <r>   -5.8878    1.0000 </r>
       <r>   -5.8796    1.0000 </r>
       <r>   -5.8624    1.0000 </r>
       <r>   -5.7834    1.0000 </r>
       <r>   -5.7744    1.0000 </r>
       <r>   -5.5266    1.0000 </r>
       <r>   -5.2225    1.0000 </r>
       <r>   -5.1973    1.0000 </r>
       <r>   -5.1935    1.0000 </r>
       <r>   -5.1376    1.0000 </r>
       <r>   -5.1340    1.0000 </r>
       <r>   -5.1065    1.0000 </r>
       <r>   -5.0002    1.0000 </r>
       <r>   -4.9455    1.0000 </r>
       <r>   -4.9175    1.0000 </r>
       <r>   -4.9054    1.0000 </r>
       <r>   -4.8996    1.0000 </r>
       <r>   -4.7288    1.0000 </r>
       <r>   -1.3125    1.0000 </r>
       <r>   -1.1995    0.0000 </r>
       <r>    0.0611    0.0000 </r>
       <r>    0.2045    0.0000 </r>
       <r>    0.2400    0.0000 </r>
       <r>    0.2573    0.0000 </r>
       <r>    0.2608    0.0000 </r>
       <r>    0.3034    0.0000 </r>
       <r>    0.3044    0.0000 </r>
       <r>    0.3766    0.0000 </r>
       <r>    0.3937    0.0000 </r>
       <r>    0.4316    0.0000 </r>
       <r>    0.4786    0.0000 </r>
       <r>    0.5249    0.0000 </r>
       <r>    0.6145    0.0000 </r>
       <r>    0.7471    0.0000 </r>
       <r>    0.7480    0.0000 </r>
       <r>    0.7759    0.0000 </r>
       <r>    0.8055    0.0000 </r>
       <r>    0.8114    0.0000 </r>
       <r>    0.8277    0.0000 </r>
       <r>    0.8376    0.0000 </r>
       <r>    0.8588    0.0000 </r>
       <r>    0.8706    0.0000 </r>
       <r>    0.9826    0.0000 </r>
       <r>    1.0216    0.0000 </r>
       <r>    1.0591    0.0000 </r>
       <r>    1.1184    0.0000 </r>
       <r>    1.4953    0.0000 </r>
       <r>    1.6730    0.0000 </r>
       <r>    1.6964    0.0000 </r>
       <r>    1.7059    0.0000 </r>
       <r>    1.7232    0.0000 </r>
       <r>    1.7403    0.0000 </r>
       <r>    1.7447    0.0000 </r>
       <r>    1.8041    0.0000 </r>
       <r>    1.8069    0.0000 </r>
       <r>    1.8454    0.0000 </r>
       <r>    1.8456    0.0000 </r>
       <r>    1.8790    0.0000 </r>
       <r>    1.8795    0.0000 </r>
       <r>    1.9045    0.0000 </r>
       <r>    1.9102    0.0000 </r>
       <r>    1.9294    0.0000 </r>
       <r>    1.9871    0.0000 </r>
       <r>    2.0307    0.0000 </r>
       <r>    2.1028    0.0000 </r>
       <r>    2.1084    0.0000 </r>
       <r>    2.1286    0.0000 </r>
       <r>    2.1348    0.0000 </r>
       <r>    2.1403    0.0000 </r>
      </set>
     </set>
    </set>
   </array>
  </eigenvalues>
  <separator name="orbital magnetization" >
   <v name="MAGDIPOLOUT">      0.00000000      0.00000000      0.00000000</v>
  </separator>
  <dos>
   <i name="efermi">     -1.25226607 </i>
   <total>
    <array>
     <dimension dim="1">gridpoints</dimension>
     <dimension dim="2">spin</dimension>
     <field>energy</field>
     <field>total</field>
     <field>integrated</field>
     <set>
      <set comment="spin 1">
       <r>   -23.7741     0.0000     0.0000 </r>
       <r>   -23.6836     0.0000     0.0000 </r>
       <r>   -23.5931     0.0000     0.0000 </r>
       <r>   -23.5027     0.0000     0.0000 </r>
       <r>   -23.4122     0.0000     0.0000 </r>
       <r>   -23.3217     0.0000     0.0000 </r>
       <r>   -23.2312     0.0000     0.0000 </r>
       <r>   -23.1407     0.0000     0.0000 </r>
       <r>   -23.0502     0.0000     0.0000 </r>
       <r>   -22.9597     0.0000     0.0000 </r>
       <r>   -22.8692     0.0000     0.0000 </r>
       <r>   -22.7787     0.0000     0.0000 </r>
       <r>   -22.6882     0.0000     0.0000 </r>
       <r>   -22.5977     0.0000     0.0000 </r>
       <r>   -22.5072    22.1007     2.0000 </r>
       <r>   -22.4167     0.0000     2.0000 </r>
       <r>   -22.3262     0.0000     2.0000 </r>
       <r>   -22.2357     0.0000     2.0000 </r>
       <r>   -22.1452     0.0000     2.0000 </r>
       <r>   -22.0547     0.0000     2.0000 </r>
       <r>   -21.9642    22.1007     4.0000 </r>
       <r>   -21.8737     0.0000     4.0000 </r>
       <r>   -21.7833     2.7368     4.2477 </r>
       <r>   -21.6928    39.4833     9.5730 </r>
       <r>   -21.6023    43.2454    13.9135 </r>
       <r>   -21.5118     0.0000    14.0000 </r>
       <r>   -21.4213     0.0000    14.0000 </r>
       <r>   -21.3308     0.0000    14.0000 </r>
       <r>   -21.2403     5.3417    14.4834 </r>
       <r>   -21.1498     0.0000    16.0000 </r>
       <r>   -21.0593    21.1964    17.9182 </r>
       <r>   -20.9688    33.6286    21.0432 </r>
       <r>   -20.8783    31.6164    24.8611 </r>
       <r>   -20.7878     0.0000    26.0000 </r>
       <r>   -20.6973    41.6700    29.7709 </r>
       <r>   -20.6068    22.5810    32.0435 </r>
       <r>   -20.5163    43.7212    36.0000 </r>
       <r>   -20.4258    13.6827    37.2382 </r>
       <r>   -20.3353     0.0000    38.0000 </r>
       <r>   -20.2448     0.0000    38.0000 </r>
       <r>   -20.1544     0.0000    38.0000 </r>
       <r>   -20.0639     0.0000    38.0000 </r>
       <r>   -19.9734    19.1956    39.7371 </r>
       <r>   -19.8829    22.1007    42.0000 </r>
       <r>   -19.7924    21.4425    43.9404 </r>
       <r>   -19.7019    84.6217    51.6583 </r>
       <r>   -19.6114    66.2188    59.9925 </r>
       <r>   -19.5209     0.0012    60.0001 </r>
       <r>   -19.4304    22.1100    62.0009 </r>
       <r>   -19.3399    66.0870    67.9815 </r>
       <r>   -19.2494    22.4998    70.0361 </r>
       <r>   -19.1589    21.7016    72.0000 </r>
       <r>   -19.0684    22.1007    74.0000 </r>
       <r>   -18.9779    22.0888    75.9989 </r>
       <r>   -18.8874    25.1163    78.2729 </r>
       <r>   -18.7969    44.2021    84.0001 </r>
       <r>   -18.7064    85.5316    91.7402 </r>
       <r>   -18.6159    21.9603    94.0000 </r>
       <r>   -18.5254     0.0000    94.0000 </r>
       <r>   -18.4350    17.3404    95.5692 </r>
       <r>   -18.3445     0.0000    96.0000 </r>
       <r>   -18.2540     0.0000    96.0000 </r>
       <r>   -18.1635     0.0000    96.0000 </r>
       <r>   -18.0730     0.0000    96.0000 </r>
       <r>   -17.9825     0.0000    96.0000 </r>
       <r>   -17.8920     0.0000    96.0000 </r>
       <r>   -17.8015     0.0000    96.0000 </r>
       <r>   -17.7110     0.0000    96.0000 </r>
       <r>   -17.6205     0.0000    96.0000 </r>
       <r>   -17.5300     0.0000    96.0000 </r>
       <r>   -17.4395     0.0000    96.0000 </r>
       <r>   -17.3490     0.0000    96.0000 </r>
       <r>   -17.2585     0.0000    96.0000 </r>
       <r>   -17.1680     0.0000    96.0000 </r>
       <r>   -17.0775     0.0000    96.0000 </r>
       <r>   -16.9870     0.0000    96.0000 </r>
       <r>   -16.8965     0.0000    96.0000 </r>
       <r>   -16.8060     0.0000    96.0000 </r>
       <r>   -16.7156     0.0000    96.0000 </r>
       <r>   -16.6251     0.0000    96.0000 </r>
       <r>   -16.5346     0.0000    96.0000 </r>
       <r>   -16.4441     0.0000    96.0000 </r>
       <r>   -16.3536     0.0000    96.0000 </r>
       <r>   -16.2631     0.0000    96.0000 </r>
       <r>   -16.1726     0.0000    96.0000 </r>
       <r>   -16.0821     0.0000    96.0000 </r>
       <r>   -15.9916     0.0000    96.0000 </r>
       <r>   -15.9011     0.0000    96.0000 </r>
       <r>   -15.8106     0.0000    96.0000 </r>
       <r>   -15.7201     0.0000    96.0000 </r>
       <r>   -15.6296     0.0000    96.0000 </r>
       <r>   -15.5391     0.0000    96.0000 </r>
       <r>   -15.4486     0.0000    96.0000 </r>
       <r>   -15.3581     0.0000    96.0000 </r>
       <r>   -15.2676     0.0000    96.0000 </r>
       <r>   -15.1771     0.0000    96.0000 </r>
       <r>   -15.0866     0.0000    96.0000 </r>
       <r>   -14.9962     0.0000    96.0000 </r>
       <r>   -14.9057     0.0000    96.0000 </r>
       <r>   -14.8152     0.0000    96.0000 </r>
       <r>   -14.7247     0.0000    96.0000 </r>
       <r>   -14.6342     0.0000    96.0000 </r>
       <r>   -14.5437     0.0000    96.0000 </r>
       <r>   -14.4532     0.0000    96.0000 </r>
       <r>   -14.3627     0.0000    96.0000 </r>
       <r>   -14.2722     0.0000    96.0000 </r>
       <r>   -14.1817     0.0000    96.0000 </r>
       <r>   -14.0912    22.1007    98.0000 </r>
       <r>   -14.0007     0.0000    98.0000 </r>
       <r>   -13.9102     0.0000    98.0000 </r>
       <r>   -13.8197     0.0000    98.0000 </r>
       <r>   -13.7292     0.0000    98.0000 </r>
       <r>   -13.6387     0.0000    98.0000 </r>
       <r>   -13.5482     0.0000    98.0000 </r>
       <r>   -13.4577     0.0000    98.0000 </r>
       <r>   -13.3672     0.0000    98.0000 </r>
       <r>   -13.2768     0.0000    98.0000 </r>
       <r>   -13.1863     6.5397    98.5918 </r>
       <r>   -13.0958    64.1554   105.8057 </r>
       <r>   -13.0053    42.0149   109.8784 </r>
       <r>   -12.9148    66.2881   115.9987 </r>
       <r>   -12.8243     0.0556   116.0050 </r>
       <r>   -12.7338    44.1441   119.9998 </r>
       <r>   -12.6433     0.0000   120.0000 </r>
       <r>   -12.5528    22.1007   122.0000 </r>
       <r>   -12.4623    44.1892   125.9989 </r>
       <r>   -12.3718    18.3340   127.6591 </r>
       <r>   -12.2813    43.8310   131.9665 </r>
       <r>   -12.1908     0.3216   132.0291 </r>
       <r>   -12.1003    21.7792   134.0000 </r>
       <r>   -12.0098     0.0000   134.0000 </r>
       <r>   -11.9193     0.1695   134.0153 </r>
       <r>   -11.8288    44.0320   138.0000 </r>
       <r>   -11.7383    80.0101   145.2405 </r>
       <r>   -11.6478    42.1638   149.8156 </r>
       <r>   -11.5574    22.3392   152.0266 </r>
       <r>   -11.4669    21.8068   154.0000 </r>
       <r>   -11.3764    22.1007   156.0000 </r>
       <r>   -11.2859     0.0000   156.0000 </r>
       <r>   -11.1954    15.9376   157.4423 </r>
       <r>   -11.1049    22.1461   160.0041 </r>
       <r>   -11.0144    44.1225   164.0000 </r>
       <r>   -10.9239    22.4600   166.0325 </r>
       <r>   -10.8334    21.7415   168.0000 </r>
       <r>   -10.7429     0.0000   168.0000 </r>
       <r>   -10.6524    22.1007   170.0000 </r>
       <r>   -10.5619     0.0000   170.0000 </r>
       <r>   -10.4714     1.2172   170.1102 </r>
       <r>   -10.3809    42.9846   174.0000 </r>
       <r>   -10.2904    22.1004   176.0000 </r>
       <r>   -10.1999    41.3087   179.7382 </r>
       <r>   -10.1094     0.0000   180.0000 </r>
       <r>   -10.0189     0.0000   180.0000 </r>
       <r>    -9.9284     0.0000   180.0000 </r>
       <r>    -9.8380    22.1007   182.0000 </r>
       <r>    -9.7475    44.0098   185.9827 </r>
       <r>    -9.6570    44.1409   189.9962 </r>
       <r>    -9.5665    22.0721   191.9974 </r>
       <r>    -9.4760    44.5418   196.0318 </r>
       <r>    -9.3855    21.7391   198.0000 </r>
       <r>    -9.2950    50.1505   202.5384 </r>
       <r>    -9.2045   162.2886   218.6863 </r>
       <r>    -9.1140    58.5572   229.2991 </r>
       <r>    -9.0235    43.3451   235.9986 </r>
       <r>    -8.9330    22.1007   238.0000 </r>
       <r>    -8.8425    15.0021   239.3576 </r>
       <r>    -8.7520    22.1007   242.0000 </r>
       <r>    -8.6615     3.9356   242.3562 </r>
       <r>    -8.5710     0.0000   244.0000 </r>
       <r>    -8.4805    35.1239   247.1785 </r>
       <r>    -8.3900    22.1007   250.0000 </r>
       <r>    -8.2995    22.1003   252.0000 </r>
       <r>    -8.2090    25.1061   254.2720 </r>
       <r>    -8.1186    82.1889   263.4829 </r>
       <r>    -8.0281    20.9597   265.8967 </r>
       <r>    -7.9376    43.7632   269.9603 </r>
       <r>    -7.8471    45.0498   274.0768 </r>
       <r>    -7.7566    66.5114   282.0189 </r>
       <r>    -7.6661   110.3566   292.0056 </r>
       <r>    -7.5756    44.2010   298.0000 </r>
       <r>    -7.4851     0.0000   298.0000 </r>
       <r>    -7.3946    70.3182   304.3634 </r>
       <r>    -7.3041    22.1008   308.0000 </r>
       <r>    -7.2136    22.1006   310.0000 </r>
       <r>    -7.1231     0.0000   310.0000 </r>
       <r>    -7.0326     0.0000   310.0000 </r>
       <r>    -6.9421     0.0000   310.0000 </r>
       <r>    -6.8516     0.1103   310.0100 </r>
       <r>    -6.7611    29.3596   312.6669 </r>
       <r>    -6.6706     0.0000   314.0000 </r>
       <r>    -6.5801    44.1911   317.9991 </r>
       <r>    -6.4896    77.9113   325.0506 </r>
       <r>    -6.3992   124.9661   337.3088 </r>
       <r>    -6.3087    64.1807   343.8080 </r>
       <r>    -6.2182     0.0000   344.0000 </r>
       <r>    -6.1277     0.1765   344.0160 </r>
       <r>    -6.0372    21.9242   346.0000 </r>
       <r>    -5.9467    22.1309   348.0027 </r>
       <r>    -5.8562    84.0669   355.6174 </r>
       <r>    -5.7657    41.6267   359.7670 </r>
       <r>    -5.6752     0.0000   360.0000 </r>
       <r>    -5.5847     0.0000   360.0000 </r>
       <r>    -5.4942    22.1007   362.0000 </r>
       <r>    -5.4037     0.0000   362.0000 </r>
       <r>    -5.3132     0.0000   362.0000 </r>
       <r>    -5.2227    10.8150   362.9787 </r>
       <r>    -5.1322    74.5166   370.7437 </r>
       <r>    -5.0417    22.0978   374.0000 </r>
       <r>    -4.9512    26.7468   376.4204 </r>
       <r>    -4.8607    66.3022   384.0000 </r>
       <r>    -4.7702     0.0000   384.0000 </r>
       <r>    -4.6798    22.1007   386.0000 </r>
       <r>    -4.5893     0.0000   386.0000 </r>
       <r>    -4.4988     0.0000   386.0000 </r>
       <r>    -4.4083     0.0000   386.0000 </r>
       <r>    -4.3178     0.0000   386.0000 </r>
       <r>    -4.2273     0.0000   386.0000 </r>
       <r>    -4.1368     0.0000   386.0000 </r>
       <r>    -4.0463     0.0000   386.0000 </r>
       <r>    -3.9558     0.0000   386.0000 </r>
       <r>    -3.8653     0.0000   386.0000 </r>
       <r>    -3.7748     0.0000   386.0000 </r>
       <r>    -3.6843     0.0000   386.0000 </r>
       <r>    -3.5938     0.0000   386.0000 </r>
       <r>    -3.5033     0.0000   386.0000 </r>
       <r>    -3.4128     0.0000   386.0000 </r>
       <r>    -3.3223     0.0000   386.0000 </r>
       <r>    -3.2318     0.0000   386.0000 </r>
       <r>    -3.1413     0.0000   386.0000 </r>
       <r>    -3.0508     0.0000   386.0000 </r>
       <r>    -2.9604     0.0000   386.0000 </r>
       <r>    -2.8699     0.0000   386.0000 </r>
       <r>    -2.7794     0.0000   386.0000 </r>
       <r>    -2.6889     0.0000   386.0000 </r>
       <r>    -2.5984     0.0000   386.0000 </r>
       <r>    -2.5079     0.0000   386.0000 </r>
       <r>    -2.4174     0.0000   386.0000 </r>
       <r>    -2.3269     0.0000   386.0000 </r>
       <r>    -2.2364     0.0000   386.0000 </r>
       <r>    -2.1459     0.0000   386.0000 </r>
       <r>    -2.0554     0.0000   386.0000 </r>
       <r>    -1.9649     0.0000   386.0000 </r>
       <r>    -1.8744     0.0000   386.0000 </r>
       <r>    -1.7839     0.0000   386.0000 </r>
       <r>    -1.6934     0.0000   386.0000 </r>
       <r>    -1.6029     0.0000   386.0000 </r>
       <r>    -1.5124     0.0000   386.0000 </r>
       <r>    -1.4219     0.0000   386.0000 </r>
       <r>    -1.3314     0.0814   386.0074 </r>
       <r>    -1.2410    22.0194   388.0000 </r>
       <r>    -1.1505    22.1007   390.0000 </r>
       <r>    -1.0600     0.0000   390.0000 </r>
       <r>    -0.9695     0.0000   390.0000 </r>
       <r>    -0.8790     0.0000   390.0000 </r>
       <r>    -0.7885     0.0000   390.0000 </r>
       <r>    -0.6980     0.0000   390.0000 </r>
       <r>    -0.6075     0.0000   390.0000 </r>
       <r>    -0.5170     0.0000   390.0000 </r>
       <r>    -0.4265     0.0000   390.0000 </r>
       <r>    -0.3360     0.0000   390.0000 </r>
       <r>    -0.2455     0.0000   390.0000 </r>
       <r>    -0.1550     0.0000   390.0000 </r>
       <r>    -0.0645     0.0000   390.0000 </r>
       <r>     0.0260     0.0000   390.0000 </r>
       <r>     0.1165    22.1007   392.0000 </r>
       <r>     0.2070    14.0716   393.2734 </r>
       <r>     0.2975    74.4034   400.7331 </r>
       <r>     0.3880    25.4672   406.3046 </r>
       <r>     0.4784    32.9673   410.9834 </r>
       <r>     0.5689    22.1007   414.0000 </r>
       <r>     0.6594    22.1007   416.0000 </r>
       <r>     0.7499    27.9939   418.5333 </r>
       <r>     0.8404   102.1489   429.2442 </r>
       <r>     0.9309    44.0967   434.0000 </r>
       <r>     1.0214    32.8675   436.9743 </r>
       <r>     1.1119    26.0722   440.3594 </r>
       <r>     1.2024     0.0000   442.0000 </r>
       <r>     1.2929     0.0000   442.0000 </r>
       <r>     1.3834     0.0000   442.0000 </r>
       <r>     1.4739     0.0275   442.0025 </r>
       <r>     1.5644    22.0732   444.0000 </r>
       <r>     1.6549     0.1151   444.0104 </r>
       <r>     1.7454   117.0655   454.6042 </r>
       <r>     1.8359    48.0037   460.3441 </r>
       <r>     1.9264    95.5509   472.6469 </r>
       <r>     2.0169    22.6621   476.0508 </r>
       <r>     2.1074    47.7162   480.3689 </r>
       <r>     2.1978    66.2722   488.0000 </r>
       <r>     2.2883     0.0000   488.0000 </r>
       <r>     2.3788     0.0000   488.0000 </r>
       <r>     2.4693     0.0000   488.0000 </r>
       <r>     2.5598     0.0000   488.0000 </r>
       <r>     2.6503     0.0000   488.0000 </r>
       <r>     2.7408     0.0000   488.0000 </r>
       <r>     2.8313     0.0000   488.0000 </r>
       <r>     2.9218     0.0000   488.0000 </r>
       <r>     3.0123     0.0000   488.0000 </r>
       <r>     3.1028     0.0000   488.0000 </r>
       <r>     3.1933     0.0000   488.0000 </r>
       <r>     3.2838     0.0000   488.0000 </r>
       <r>     3.3743     0.0000   488.0000 </r>
      </set>
     </set>
    </array>
   </total>
  </dos>
 </calculation>
 <structure name="finalpos" >
  <crystal>
   <varray name="basis" >
    <v>      17.59966831       0.00000000       0.00000000 </v>
    <v>      -8.79983416      15.24175986       0.00000000 </v>
    <v>       0.00000000       0.00000000      19.92151445 </v>
   </varray>
   <i name="volume">   5343.94461817 </i>
   <varray name="rec_basis" >
    <v>       0.05681925       0.03280461       0.00000000 </v>
    <v>       0.00000000       0.06560922       0.00000000 </v>
    <v>       0.00000000       0.00000000       0.05019699 </v>
   </varray>
  </crystal>
  <varray name="positions" >
   <v>       0.99943010       0.00005992       0.50000000 </v>
   <v>       0.14164706       0.99871895       0.50000000 </v>
   <v>       0.28492260       0.99841663       0.50000000 </v>
   <v>       0.42850047       0.99871895       0.50000000 </v>
   <v>       0.57205839       0.00005992       0.50000000 </v>
   <v>       0.71530655       0.00271111       0.50000000 </v>
   <v>       0.85826494       0.00214292       0.50000000 </v>
   <v>       0.00080792       0.14408264       0.50000000 </v>
   <v>       0.14259355       0.14244783       0.50000000 </v>
   <v>       0.28470221       0.14112972       0.50000000 </v>
   <v>       0.42785608       0.14112972       0.50000000 </v>
   <v>       0.57128286       0.14244783       0.50000000 </v>
   <v>       0.71470329       0.14408264       0.50000000 </v>
   <v>       0.85805263       0.14467669       0.50000000 </v>
   <v>       0.00095476       0.28713011       0.50000000 </v>
   <v>       0.14372552       0.28645370       0.50000000 </v>
   <v>       0.28540977       0.28469374       0.50000000 </v>
   <v>       0.42724431       0.28306005       0.50000000 </v>
   <v>       0.57071254       0.28469374       0.50000000 </v>
   <v>       0.71415674       0.28645370       0.50000000 </v>
   <v>       0.85760392       0.28713011       0.50000000 </v>
   <v>       0.00054479       0.42966101       0.50000000 </v>
   <v>       0.14422690       0.42957551       0.50000000 </v>
   <v>       0.28730213       0.42918005       0.50000000 </v>
   <v>       0.42797654       0.42569726       0.50000000 </v>
   <v>       0.56914930       0.42569726       0.50000000 </v>
   <v>       0.71330650       0.42918005       0.50000000 </v>
   <v>       0.85677719       0.42957551       0.50000000 </v>
   <v>       0.99928255       0.57181462       0.50000000 </v>
   <v>       0.14396064       0.57181462       0.50000000 </v>
   <v>       0.28862787       0.57181625       0.50000000 </v>
   <v>       0.43313209       0.57215564       0.50000000 </v>
   <v>       0.71045212       0.57215564       0.50000000 </v>
   <v>       0.85461695       0.57181625       0.50000000 </v>
   <v>       0.99707234       0.71370518       0.50000000 </v>
   <v>       0.14255519       0.71368182       0.50000000 </v>
   <v>       0.28806142       0.71370518       0.50000000 </v>
   <v>       0.43464191       0.71382540       0.50000000 </v>
   <v>       0.58510826       0.71626937       0.50000000 </v>
   <v>       0.70258968       0.71626937       0.50000000 </v>
   <v>       0.85061206       0.71382540       0.50000000 </v>
   <v>       0.99777175       0.85613493       0.50000000 </v>
   <v>       0.14160898       0.85591288       0.50000000 </v>
   <v>       0.28573247       0.85591288       0.50000000 </v>
   <v>       0.42979175       0.85613493       0.50000000 </v>
   <v>       0.57342541       0.85758690       0.50000000 </v>
   <v>       0.71640633       0.86138410       0.50000000 </v>
   <v>       0.85559006       0.85758690       0.50000000 </v>
   <v>       0.04754270       0.09547788       0.50000000 </v>
   <v>       0.18957833       0.09405657       0.50000000 </v>
   <v>       0.33254182       0.09365506       0.50000000 </v>
   <v>       0.47590681       0.09405657       0.50000000 </v>
   <v>       0.61936376       0.09547788       0.50000000 </v>
   <v>       0.76280004       0.09719274       0.50000000 </v>
   <v>       0.90582126       0.09719274       0.50000000 </v>
   <v>       0.04854983       0.23934281       0.50000000 </v>
   <v>       0.19048138       0.23782962       0.50000000 </v>
   <v>       0.33234878       0.23634667       0.50000000 </v>
   <v>       0.47542646       0.23634667       0.50000000 </v>
   <v>       0.61877681       0.23782962       0.50000000 </v>
   <v>       0.76222155       0.23934281       0.50000000 </v>
   <v>       0.90562797       0.23982737       0.50000000 </v>
   <v>       0.04871288       0.38232824       0.50000000 </v>
   <v>       0.19188940       0.38184213       0.50000000 </v>
   <v>       0.33352206       0.38013969       0.50000000 </v>
   <v>       0.47472270       0.37801683       0.50000000 </v>
   <v>       0.61804620       0.38013969       0.50000000 </v>
   <v>       0.76138130       0.38184213       0.50000000 </v>
   <v>       0.90504393       0.38232824       0.50000000 </v>
   <v>       0.04810654       0.52478452       0.50000000 </v>
   <v>       0.19263929       0.52476864       0.50000000 </v>
   <v>       0.33696521       0.52455433       0.50000000 </v>
   <v>       0.47833704       0.52146721       0.50000000 </v>
   <v>       0.61455874       0.52146721       0.50000000 </v>
   <v>       0.75901769       0.52455433       0.50000000 </v>
   <v>       0.90355792       0.52476864       0.50000000 </v>
   <v>       0.04642473       0.66685228       0.50000000 </v>
   <v>       0.19185612       0.66685228       0.50000000 </v>
   <v>       0.33777931       0.66688794       0.50000000 </v>
   <v>       0.48615700       0.66710760       0.50000000 </v>
   <v>       0.75237918       0.66710760       0.50000000 </v>
   <v>       0.90053720       0.66688794       0.50000000 </v>
   <v>       0.04582562       0.80879365       0.50000000 </v>
   <v>       0.19009580       0.80876303       0.50000000 </v>
   <v>       0.33439660       0.80879365       0.50000000 </v>
   <v>       0.47844872       0.80897069       0.50000000 </v>
   <v>       0.62209487       0.81129474       0.50000000 </v>
   <v>       0.76062845       0.81129474       0.50000000 </v>
   <v>       0.90195054       0.80897069       0.50000000 </v>
   <v>       0.04629157       0.95154386       0.50000000 </v>
   <v>       0.18948291       0.95113037       0.50000000 </v>
   <v>       0.33307603       0.95113037       0.50000000 </v>
   <v>       0.47668087       0.95154386       0.50000000 </v>
   <v>       0.62015751       0.95313740       0.50000000 </v>
   <v>       0.76355772       0.95568687       0.50000000 </v>
   <v>       0.90440847       0.95313740       0.50000000 </v>
   <v>       0.56830873       0.56518888       0.50000000 </v>
  </varray>
 </structure>
</modeling>
