<?xml version="1.0" encoding="ISO-8859-1"?>
<modeling>
 <generator>
  <i name="program" type="string">vasp </i>
  <i name="version" type="string">5.4.4.18Apr17-6-g9f103f2a35  </i>
  <i name="subversion" type="string">(build Oct 18 2020 22:16:12) gamma-only         parallel </i>
  <i name="platform" type="string">UA-vaughan-2020a </i>
  <i name="date" type="string">2023 03 21 </i>
  <i name="time" type="string">18:46:30 </i>
 </generator>
 <incar>
  <i type="string" name="PREC">accurate</i>
  <i type="int" name="IALGO">    38</i>
  <i type="logical" name="ADDGRID"> T  </i>
  <i type="int" name="NELMIN">     5</i>
  <i type="int" name="IBRION">    -1</i>
  <i name="EDIFF">      0.00000001</i>
  <i name="EDIFFG">     -0.00000001</i>
  <i type="int" name="NSW">     0</i>
  <i type="int" name="ISIF">     2</i>
  <i name="ENCUT">    500.00000000</i>
  <i type="logical" name="LREAL"> F  </i>
  <i type="int" name="ISMEAR">     0</i>
  <i name="SIGMA">      0.01000000</i>
  <i type="logical" name="LWAVE"> F  </i>
  <i type="logical" name="LCHARG"> F  </i>
  <v type="int" name="KPOINT_BSE">    -1     0     0     0</v>
 </incar>
 <structure name="primitive_cell" >
  <crystal>
   <varray name="basis" >
    <v>      17.59966831       0.00000000       0.00000000 </v>
    <v>      -8.79983416      15.24175986       0.00000000 </v>
    <v>       0.00000000       0.00000000      19.92151445 </v>
   </varray>
   <i name="volume">   5343.94461817 </i>
   <varray name="rec_basis" >
    <v>       0.05681925       0.03280461       0.00000000 </v>
    <v>       0.00000000       0.06560922       0.00000000 </v>
    <v>       0.00000000       0.00000000       0.05019699 </v>
   </varray>
  </crystal>
  <varray name="positions" >
   <v>      -0.00056990       0.00005992      -0.50000000 </v>
   <v>      -0.09559153      -0.04686260      -0.50000000 </v>
   <v>       0.04629157      -0.04845614      -0.50000000 </v>
   <v>       0.04754270       0.09547788      -0.50000000 </v>
   <v>      -0.14173506       0.00214292      -0.50000000 </v>
   <v>       0.14259355       0.14244783      -0.50000000 </v>
   <v>       0.14164706      -0.00128105      -0.50000000 </v>
   <v>      -0.00222825      -0.14386507      -0.50000000 </v>
   <v>      -0.14440994      -0.14241310      -0.50000000 </v>
   <v>       0.00080792       0.14408264      -0.50000000 </v>
   <v>       0.18957833       0.09405657      -0.50000000 </v>
   <v>      -0.09417874       0.09719274      -0.50000000 </v>
   <v>      -0.09804946      -0.19102931      -0.50000000 </v>
   <v>      -0.23644228      -0.04431313      -0.50000000 </v>
   <v>      -0.23937155      -0.18870526      -0.50000000 </v>
   <v>       0.19048138       0.23782962      -0.50000000 </v>
   <v>       0.04582562      -0.19120635      -0.50000000 </v>
   <v>       0.18948291      -0.04886963      -0.50000000 </v>
   <v>       0.04854983       0.23934281      -0.50000000 </v>
   <v>      -0.28359367      -0.13861590      -0.50000000 </v>
   <v>       0.28470221       0.14112972      -0.50000000 </v>
   <v>      -0.14194737       0.14467669      -0.50000000 </v>
   <v>      -0.14938794      -0.28617460      -0.50000000 </v>
   <v>       0.14160898      -0.14408712      -0.50000000 </v>
   <v>       0.14372552       0.28645370      -0.50000000 </v>
   <v>      -0.28469345       0.00214292      -0.50000000 </v>
   <v>      -0.00292766      -0.28629482      -0.50000000 </v>
   <v>       0.28540977       0.28469374      -0.50000000 </v>
   <v>       0.00095476       0.28713011      -0.50000000 </v>
   <v>       0.28492260      -0.00158337      -0.50000000 </v>
   <v>      -0.29741032      -0.28373063      -0.50000000 </v>
   <v>      -0.09946280      -0.33311206      -0.50000000 </v>
   <v>       0.33234878       0.23634667      -0.50000000 </v>
   <v>      -0.23719996       0.09719274      -0.50000000 </v>
   <v>       0.33254182       0.09365506      -0.50000000 </v>
   <v>      -0.09437203       0.23982737      -0.50000000 </v>
   <v>      -0.24762082      -0.33289240      -0.50000000 </v>
   <v>      -0.37790513      -0.18870526      -0.50000000 </v>
   <v>       0.19188940       0.38184213      -0.50000000 </v>
   <v>       0.19009580      -0.19123697      -0.50000000 </v>
   <v>      -0.37984249      -0.04686260      -0.50000000 </v>
   <v>       0.04642473      -0.33314772      -0.50000000 </v>
   <v>       0.33352206       0.38013969      -0.50000000 </v>
   <v>       0.04871288       0.38232824      -0.50000000 </v>
   <v>       0.33307603      -0.04886963      -0.50000000 </v>
   <v>      -0.41489174      -0.28373063      -0.50000000 </v>
   <v>      -0.42657459      -0.14241310      -0.50000000 </v>
   <v>       0.42724431       0.28306005      -0.50000000 </v>
   <v>      -0.14538305      -0.42818375      -0.50000000 </v>
   <v>      -0.28529671       0.14408264      -0.50000000 </v>
   <v>      -0.28954788      -0.42784436      -0.50000000 </v>
   <v>       0.42785608       0.14112972      -0.50000000 </v>
   <v>      -0.14239608       0.28713011      -0.50000000 </v>
   <v>       0.14422690       0.42957551      -0.50000000 </v>
   <v>       0.28730213       0.42918005      -0.50000000 </v>
   <v>       0.14255519      -0.28631818      -0.50000000 </v>
   <v>       0.28573247      -0.14408712      -0.50000000 </v>
   <v>      -0.24098231      -0.47544567      -0.50000000 </v>
   <v>       0.47542646       0.23634667      -0.50000000 </v>
   <v>      -0.23777845       0.23934281      -0.50000000 </v>
   <v>       0.42797654       0.42569726      -0.50000000 </v>
   <v>      -0.42794161       0.00005992      -0.50000000 </v>
   <v>      -0.00071745      -0.42818538      -0.50000000 </v>
   <v>       0.00054479       0.42928482       0.49962381 </v>
   <v>       0.42850047      -0.00128105      -0.50000000 </v>
   <v>      -0.43169127      -0.43481112      -0.50000000 </v>
   <v>       0.47472270       0.37801683      -0.50000000 </v>
   <v>      -0.09644208      -0.47523136      -0.50000000 </v>
   <v>      -0.38063624       0.09547788      -0.50000000 </v>
   <v>       0.47590681       0.09405657      -0.50000000 </v>
   <v>      -0.09495607       0.38232824      -0.50000000 </v>
   <v>      -0.38544126      -0.47853279      -0.50000000 </v>
   <v>       0.48615700      -0.33289240      -0.50000000 </v>
   <v>       0.47844872      -0.19102931      -0.50000000 </v>
   <v>       0.19263929      -0.47523136      -0.50000000 </v>
   <v>       0.33696521      -0.47544567      -0.50000000 </v>
   <v>       0.19185612      -0.33314772      -0.50000000 </v>
   <v>       0.33439660      -0.19120635      -0.50000000 </v>
   <v>       0.43464191      -0.28617460      -0.50000000 </v>
   <v>      -0.28669350       0.42918005      -0.50000000 </v>
   <v>      -0.42928746       0.28469374      -0.50000000 </v>
   <v>      -0.28584326       0.28645370      -0.50000000 </v>
   <v>       0.28862787      -0.42818375      -0.50000000 </v>
   <v>       0.28806142      -0.28629482      -0.50000000 </v>
   <v>       0.47668087      -0.04845614      -0.50000000 </v>
   <v>       0.47833704      -0.47853279      -0.50000000 </v>
   <v>       0.04810654      -0.47521548      -0.50000000 </v>
   <v>       0.43313209      -0.42784436      -0.50000000 </v>
   <v>       0.42979175      -0.14386507      -0.50000000 </v>
   <v>      -0.43085070       0.42569726      -0.50000000 </v>
   <v>      -0.14322281       0.42957551      -0.50000000 </v>
   <v>      -0.42871714       0.14244783      -0.50000000 </v>
   <v>       0.14396064      -0.42818538      -0.50000000 </v>
   <v>      -0.23861870       0.38184213      -0.50000000 </v>
   <v>      -0.38122319       0.23782962      -0.50000000 </v>
   <v>      -0.38195380       0.38013969      -0.50000000 </v>
   <v>       0.33777931      -0.33311206      -0.50000000 </v>
  </varray>
 </structure>
 <varray name="primitive_index" >
  <v type="int" >        1 </v>
  <v type="int" >       96 </v>
  <v type="int" >       90 </v>
  <v type="int" >       49 </v>
  <v type="int" >        7 </v>
  <v type="int" >        9 </v>
  <v type="int" >        2 </v>
  <v type="int" >       42 </v>
  <v type="int" >       48 </v>
  <v type="int" >        8 </v>
  <v type="int" >       50 </v>
  <v type="int" >       55 </v>
  <v type="int" >       89 </v>
  <v type="int" >       95 </v>
  <v type="int" >       88 </v>
  <v type="int" >       57 </v>
  <v type="int" >       83 </v>
  <v type="int" >       91 </v>
  <v type="int" >       56 </v>
  <v type="int" >       47 </v>
  <v type="int" >       10 </v>
  <v type="int" >       14 </v>
  <v type="int" >       41 </v>
  <v type="int" >       43 </v>
  <v type="int" >       16 </v>
  <v type="int" >        6 </v>
  <v type="int" >       35 </v>
  <v type="int" >       17 </v>
  <v type="int" >       15 </v>
  <v type="int" >        3 </v>
  <v type="int" >       40 </v>
  <v type="int" >       82 </v>
  <v type="int" >       58 </v>
  <v type="int" >       54 </v>
  <v type="int" >       51 </v>
  <v type="int" >       62 </v>
  <v type="int" >       81 </v>
  <v type="int" >       87 </v>
  <v type="int" >       64 </v>
  <v type="int" >       84 </v>
  <v type="int" >       94 </v>
  <v type="int" >       77 </v>
  <v type="int" >       65 </v>
  <v type="int" >       63 </v>
  <v type="int" >       92 </v>
  <v type="int" >       39 </v>
  <v type="int" >       46 </v>
  <v type="int" >       18 </v>
  <v type="int" >       34 </v>
  <v type="int" >       13 </v>
  <v type="int" >       33 </v>
  <v type="int" >       11 </v>
  <v type="int" >       21 </v>
  <v type="int" >       23 </v>
  <v type="int" >       24 </v>
  <v type="int" >       36 </v>
  <v type="int" >       44 </v>
  <v type="int" >       75 </v>
  <v type="int" >       59 </v>
  <v type="int" >       61 </v>
  <v type="int" >       25 </v>
  <v type="int" >        5 </v>
  <v type="int" >       29 </v>
  <v type="int" >       22 </v>
  <v type="int" >        4 </v>
  <v type="int" >       97 </v>
  <v type="int" >       66 </v>
  <v type="int" >       76 </v>
  <v type="int" >       53 </v>
  <v type="int" >       52 </v>
  <v type="int" >       69 </v>
  <v type="int" >       74 </v>
  <v type="int" >       80 </v>
  <v type="int" >       86 </v>
  <v type="int" >       71 </v>
  <v type="int" >       72 </v>
  <v type="int" >       78 </v>
  <v type="int" >       85 </v>
  <v type="int" >       38 </v>
  <v type="int" >       27 </v>
  <v type="int" >       19 </v>
  <v type="int" >       20 </v>
  <v type="int" >       31 </v>
  <v type="int" >       37 </v>
  <v type="int" >       93 </v>
  <v type="int" >       73 </v>
  <v type="int" >       70 </v>
  <v type="int" >       32 </v>
  <v type="int" >       45 </v>
  <v type="int" >       26 </v>
  <v type="int" >       28 </v>
  <v type="int" >       12 </v>
  <v type="int" >       30 </v>
  <v type="int" >       68 </v>
  <v type="int" >       60 </v>
  <v type="int" >       67 </v>
  <v type="int" >       79 </v>
 </varray>
 <kpoints>
  <generation param="Gamma">
   <v type="int" name="divisions">       1        1        1 </v>
   <v name="usershift">      0.00000000       0.00000000       0.00000000 </v>
   <v name="genvec1">      1.00000000      -0.00000000       0.00000000 </v>
   <v name="genvec2">      0.00000000       1.00000000       0.00000000 </v>
   <v name="genvec3">      0.00000000       0.00000000       1.00000000 </v>
   <v name="shift">      0.00000000       0.00000000       0.00000000 </v>
  </generation>
  <varray name="kpointlist" >
   <v>       0.00000000       0.00000000       0.00000000 </v>
  </varray>
  <varray name="weights" >
   <v>       1.00000000 </v>
  </varray>
 </kpoints>
 <parameters>
  <separator name="general" >
   <i type="string" name="SYSTEM">unknown system</i>
   <i type="logical" name="LCOMPAT"> F  </i>
  </separator>
  <separator name="electronic" >
   <i type="string" name="PREC">accura</i>
   <i name="ENMAX">    500.00000000</i>
   <i name="ENAUG">    644.87300000</i>
   <i name="EDIFF">      0.00000001</i>
   <i type="int" name="IALGO">    38</i>
   <i type="int" name="IWAVPR">    10</i>
   <i type="int" name="NBANDS">   244</i>
   <i name="NELECT">    388.00000000</i>
   <i type="int" name="TURBO">     0</i>
   <i type="int" name="IRESTART">     0</i>
   <i type="int" name="NREBOOT">     0</i>
   <i type="int" name="NMIN">     0</i>
   <i name="EREF">      0.00000000</i>
   <separator name="electronic smearing" >
    <i type="int" name="ISMEAR">     0</i>
    <i name="SIGMA">      0.01000000</i>
    <i name="KSPACING">      0.50000000</i>
    <i type="logical" name="KGAMMA"> T  </i>
   </separator>
   <separator name="electronic projectors" >
    <i type="logical" name="LREAL"> F  </i>
    <v name="ROPT">      0.00000000      0.00000000      0.00000000</v>
    <i type="int" name="LMAXPAW">  -100</i>
    <i type="int" name="LMAXMIX">     2</i>
    <i type="logical" name="NLSPLINE"> F  </i>
   </separator>
   <separator name="electronic startup" >
    <i type="int" name="ISTART">     0</i>
    <i type="int" name="ICHARG">     2</i>
    <i type="int" name="INIWAV">     1</i>
   </separator>
   <separator name="electronic spin" >
    <i type="int" name="ISPIN">     1</i>
    <i type="logical" name="LNONCOLLINEAR"> F  </i>
    <v name="MAGMOM">      1.00000000      1.00000000      1.00000000      1.00000000      1.00000000      1.00000000      1.00000000      1.00000000      1.00000000      1.00000000      1.00000000      1.00000000      1.00000000      1.00000000      1.00000000      1.00000000      1.00000000      1.00000000      1.00000000      1.00000000
      1.00000000      1.00000000      1.00000000      1.00000000      1.00000000      1.00000000      1.00000000      1.00000000      1.00000000      1.00000000      1.00000000      1.00000000      1.00000000      1.00000000      1.00000000      1.00000000      1.00000000      1.00000000      1.00000000      1.00000000
      1.00000000      1.00000000      1.00000000      1.00000000      1.00000000      1.00000000      1.00000000      1.00000000      1.00000000      1.00000000      1.00000000      1.00000000      1.00000000      1.00000000      1.00000000      1.00000000      1.00000000      1.00000000      1.00000000      1.00000000
      1.00000000      1.00000000      1.00000000      1.00000000      1.00000000      1.00000000      1.00000000      1.00000000      1.00000000      1.00000000      1.00000000      1.00000000      1.00000000      1.00000000      1.00000000      1.00000000      1.00000000      1.00000000      1.00000000      1.00000000
      1.00000000      1.00000000      1.00000000      1.00000000      1.00000000      1.00000000      1.00000000      1.00000000      1.00000000      1.00000000      1.00000000      1.00000000      1.00000000      1.00000000      1.00000000      1.00000000      1.00000000</v>
    <i name="NUPDOWN">     -1.00000000</i>
    <i type="logical" name="LSORBIT"> F  </i>
    <v name="SAXIS">      0.00000000      0.00000000      1.00000000</v>
    <i type="logical" name="LSPIRAL"> F  </i>
    <v name="QSPIRAL">      0.00000000      0.00000000      0.00000000</v>
    <i type="logical" name="LZEROZ"> F  </i>
   </separator>
   <separator name="electronic exchange-correlation" >
    <i type="logical" name="LASPH"> F  </i>
    <i type="logical" name="LMETAGGA"> F  </i>
   </separator>
   <separator name="electronic convergence" >
    <i type="int" name="NELM">    60</i>
    <i type="int" name="NELMDL">    -5</i>
    <i type="int" name="NELMIN">     5</i>
    <i name="ENINI">    500.00000000</i>
    <separator name="electronic convergence detail" >
     <i type="logical" name="LDIAG"> T  </i>
     <i type="logical" name="LSUBROT"> F  </i>
     <i name="WEIMIN">      0.00000000</i>
     <i name="EBREAK">      0.00000000</i>
     <i name="DEPER">      0.30000000</i>
     <i type="int" name="NRMM">     4</i>
     <i name="TIME">      0.40000000</i>
    </separator>
   </separator>
   <separator name="electronic mixer" >
    <i name="AMIX">      0.40000000</i>
    <i name="BMIX">      1.00000000</i>
    <i name="AMIN">      0.10000000</i>
    <i name="AMIX_MAG">      1.60000000</i>
    <i name="BMIX_MAG">      1.00000000</i>
    <separator name="electronic mixer details" >
     <i type="int" name="IMIX">     4</i>
     <i type="logical" name="MIXFIRST"> F  </i>
     <i type="int" name="MAXMIX">   -45</i>
     <i name="WC">    100.00000000</i>
     <i type="int" name="INIMIX">     1</i>
     <i type="int" name="MIXPRE">     1</i>
     <i type="int" name="MREMOVE">     5</i>
    </separator>
   </separator>
   <separator name="electronic dipolcorrection" >
    <i type="logical" name="LDIPOL"> F  </i>
    <i type="logical" name="LMONO"> F  </i>
    <i type="int" name="IDIPOL">     0</i>
    <i name="EPSILON">      1.00000000</i>
    <v name="DIPOL">   -100.00000000   -100.00000000   -100.00000000</v>
    <i name="EFIELD">      0.00000000</i>
   </separator>
  </separator>
  <separator name="grids" >
   <i type="int" name="NGX">   128</i>
   <i type="int" name="NGY">   128</i>
   <i type="int" name="NGZ">   150</i>
   <i type="int" name="NGXF">   256</i>
   <i type="int" name="NGYF">   256</i>
   <i type="int" name="NGZF">   300</i>
   <i type="logical" name="ADDGRID"> T  </i>
  </separator>
  <separator name="ionic" >
   <i type="int" name="NSW">     0</i>
   <i type="int" name="IBRION">    -1</i>
   <i type="int" name="MDALGO">     0</i>
   <i type="int" name="ISIF">     2</i>
   <i name="PSTRESS">      0.00000000</i>
   <i name="EDIFFG">     -0.00000001</i>
   <i type="int" name="NFREE">     0</i>
   <i name="POTIM">      0.50000000</i>
   <i name="SMASS">     -3.00000000</i>
   <i name="SCALEE">      1.00000000</i>
  </separator>
  <separator name="ionic md" >
   <i name="TEBEG">      0.00010000</i>
   <i name="TEEND">      0.00010000</i>
   <i type="int" name="NBLOCK">     1</i>
   <i type="int" name="KBLOCK">     1</i>
   <i type="int" name="NPACO">   256</i>
   <i name="APACO">     16.00000000</i>
  </separator>
  <separator name="symmetry" >
   <i type="int" name="ISYM">     2</i>
   <i name="SYMPREC">      0.00001000</i>
  </separator>
  <separator name="dos" >
   <i type="int" name="LORBIT">     0</i>
   <v name="RWIGS">     -1.00000000     -1.00000000     -1.00000000</v>
   <i type="int" name="NEDOS">   301</i>
   <i name="EMIN">     10.00000000</i>
   <i name="EMAX">    -10.00000000</i>
   <i name="EFERMI">      0.00000000</i>
  </separator>
  <separator name="writing" >
   <i type="int" name="NWRITE">     2</i>
   <i type="logical" name="LWAVE"> F  </i>
   <i type="logical" name="LDOWNSAMPLE"> F  </i>
   <i type="logical" name="LCHARG"> F  </i>
   <i type="logical" name="LPARD"> F  </i>
   <i type="logical" name="LVTOT"> F  </i>
   <i type="logical" name="LVHAR"> F  </i>
   <i type="logical" name="LELF"> F  </i>
   <i type="logical" name="LOPTICS"> F  </i>
   <v name="STM">      0.00000000      0.00000000      0.00000000      0.00000000      0.00000000      0.00000000      0.00000000</v>
  </separator>
  <separator name="performance" >
   <i type="int" name="NPAR">     4</i>
   <i type="int" name="NSIM">     4</i>
   <i type="int" name="NBLK">    -1</i>
   <i type="logical" name="LPLANE"> T  </i>
   <i type="logical" name="LSCALAPACK"> T  </i>
   <i type="logical" name="LSCAAWARE"> F  </i>
   <i type="logical" name="LSCALU"> F  </i>
   <i type="logical" name="LASYNC"> F  </i>
   <i type="logical" name="LORBITALREAL"> F  </i>
  </separator>
  <separator name="miscellaneous" >
   <i type="int" name="IDIOT">     3</i>
   <i type="int" name="ISPECIAL">     0</i>
   <i type="logical" name="LMUSIC"> F  </i>
   <v name="POMASS">     10.81100000     14.00100000     12.01100000</v>
   <v name="DARWINR">      0.00000000      0.00000000      0.00000000</v>
   <v name="DARWINV">      1.00000000      1.00000000      1.00000000</v>
   <i type="logical" name="LCORR"> T  </i>
  </separator>
  <i type="logical" name="GGA_COMPAT"> T  </i>
  <i type="logical" name="LBERRY"> F  </i>
  <i type="int" name="ICORELEVEL">     0</i>
  <i type="logical" name="LDAU"> F  </i>
  <i type="int" name="I_CONSTRAINED_M">     0</i>
  <separator name="electronic exchange-correlation" >
   <i type="string" name="GGA">--</i>
   <i type="int" name="VOSKOWN">     0</i>
   <i type="logical" name="LHFCALC"> F  </i>
   <i type="string" name="PRECFOCK"></i>
   <i type="logical" name="LSYMGRAD"> F  </i>
   <i type="logical" name="LHFONE"> F  </i>
   <i type="logical" name="LRHFCALC"> F  </i>
   <i type="logical" name="LTHOMAS"> F  </i>
   <i type="logical" name="LMODELHF"> F  </i>
   <i name="ENCUT4O">     -1.00000000</i>
   <i type="int" name="EXXOEP">     0</i>
   <i type="int" name="FOURORBIT">     0</i>
   <i name="AEXX">      0.00000000</i>
   <i name="HFALPHA">      0.00000000</i>
   <i name="MCALPHA">      0.00000000</i>
   <i name="ALDAX">      1.00000000</i>
   <i name="AGGAX">      1.00000000</i>
   <i name="ALDAC">      1.00000000</i>
   <i name="AGGAC">      1.00000000</i>
   <i type="int" name="NKREDX">     1</i>
   <i type="int" name="NKREDY">     1</i>
   <i type="int" name="NKREDZ">     1</i>
   <i type="logical" name="SHIFTRED"> F  </i>
   <i type="logical" name="ODDONLY"> F  </i>
   <i type="logical" name="EVENONLY"> F  </i>
   <i type="int" name="LMAXFOCK">     0</i>
   <i type="int" name="NMAXFOCKAE">     0</i>
   <i type="logical" name="LFOCKAEDFT"> F  </i>
   <i name="HFSCREEN">      0.00000000</i>
   <i name="HFSCREENC">      0.00000000</i>
   <i type="int" name="NBANDSGWLOW">     0</i>
  </separator>
  <separator name="vdW DFT" >
   <i type="logical" name="LUSE_VDW"> F  </i>
   <i name="Zab_VDW">     -0.84910000</i>
   <i name="PARAM1">      0.12340000</i>
   <i name="PARAM2">      1.00000000</i>
   <i name="PARAM3">      0.00000000</i>
  </separator>
  <separator name="model GW" >
   <i type="int" name="MODEL_GW">     0</i>
   <i name="MODEL_EPS0">     33.05532754</i>
   <i name="MODEL_ALPHA">      1.00000000</i>
  </separator>
  <separator name="linear response parameters" >
   <i type="logical" name="LEPSILON"> F  </i>
   <i type="logical" name="LRPA"> F  </i>
   <i type="logical" name="LNABLA"> F  </i>
   <i type="logical" name="LVEL"> F  </i>
   <i type="int" name="KINTER">     0</i>
   <i name="CSHIFT">      0.10000000</i>
   <i name="OMEGAMAX">     -1.00000000</i>
   <i name="DEG_THRESHOLD">      0.00200000</i>
   <i name="RTIME">     -0.10000000</i>
   <i name="WPLASMAI">      0.00000000</i>
   <v name="DFIELD">      0.00000000      0.00000000      0.00000000</v>
   <v name="WPLASMA">      0.00000000      0.00000000      0.00000000      0.00000000      0.00000000      0.00000000      0.00000000      0.00000000      0.00000000</v>
  </separator>
  <separator name="orbital magnetization" >
   <i type="logical" name="NUCIND"> F  </i>
   <v name="MAGPOS">      0.00000000      0.00000000      0.00000000</v>
   <i type="logical" name="LNICSALL"> T  </i>
   <i type="logical" name="ORBITALMAG"> F  </i>
   <i type="logical" name="LMAGBLOCH"> F  </i>
   <i type="logical" name="LCHIMAG"> F  </i>
   <i type="logical" name="LGAUGE"> T  </i>
   <i type="int" name="MAGATOM">     0</i>
   <v name="MAGDIPOL">      0.00000000      0.00000000      0.00000000</v>
   <v name="AVECCONST">      0.00000000      0.00000000      0.00000000</v>
  </separator>
  <separator name="response functions" >
   <i type="logical" name="LADDER"> F  </i>
   <i type="logical" name="LRPAFORCE"> F  </i>
   <i type="logical" name="LFXC"> F  </i>
   <i type="logical" name="LHARTREE"> T  </i>
   <i type="int" name="IBSE">     0</i>
   <v type="int" name="KPOINT">    -1     0     0     0</v>
   <i type="logical" name="LTCTE"> F  </i>
   <i type="logical" name="LTETE"> F  </i>
   <i type="logical" name="LTRIPLET"> F  </i>
   <i type="logical" name="LFXCEPS"> F  </i>
   <i type="logical" name="LFXHEG"> F  </i>
   <i type="int" name="NATURALO">     2</i>
   <i type="logical" name="L2ORDER"> F  </i>
   <i type="logical" name="LMP2LT"> F  </i>
   <i type="logical" name="LUSEW"> F  </i>
   <i name="ENCUTGW">     -2.00000000</i>
   <i name="ENCUTGWSOFT">     -2.00000000</i>
   <i name="ENCUTLF">     -1.00000000</i>
   <i type="int" name="LMAXMP2">    -1</i>
   <i name="SCISSOR">      0.00000000</i>
   <i type="int" name="NOMEGA">     0</i>
   <i type="int" name="NOMEGAR">     0</i>
   <i type="int" name="NBANDSGW">    -1</i>
   <i type="int" name="NBANDSO">    -1</i>
   <i type="int" name="NBANDSV">    -1</i>
   <i type="int" name="NELM">     1</i>
   <i type="int" name="NELMHF">     1</i>
   <i type="int" name="DIM">     3</i>
   <i type="int" name="ANTIRES">     0</i>
   <i name="OMEGAMAX">    -30.00000000</i>
   <i name="OMEGAMIN">    -30.00000000</i>
   <i name="OMEGATL">   -200.00000000</i>
   <i type="int" name="OMEGAGRID">   140</i>
   <i name="CSHIFT">     -0.10000000</i>
   <i type="logical" name="SELFENERGY"> F  </i>
   <i type="logical" name="LSPECTRAL"> F  </i>
   <i type="logical" name="LSPECTRALGW"> F  </i>
   <i type="logical" name="LSINGLES"> F  </i>
   <i type="logical" name="LFERMIGW"> F  </i>
   <i type="logical" name="ODDONLYGW"> F  </i>
   <i type="logical" name="EVENONLYGW"> F  </i>
   <i type="int" name="NKREDLFX">     1</i>
   <i type="int" name="NKREDLFY">     1</i>
   <i type="int" name="NKREDLFZ">     1</i>
   <i type="int" name="MAXMEM">  2800</i>
   <i type="int" name="TELESCOPE">     0</i>
   <i type="int" name="TAUPAR">     1</i>
   <i type="int" name="OMEGAPAR">    -1</i>
   <i name="LAMBDA">      1.00000000</i>
  </separator>
  <separator name="External order field" >
   <i name="OFIELD_KAPPA">      0.00000000</i>
   <v name="OFIELD_K">      0.00000000      0.00000000      0.00000000</v>
   <i name="OFIELD_Q6_NEAR">      0.00000000</i>
   <i name="OFIELD_Q6_FAR">      0.00000000</i>
   <i name="OFIELD_A">      0.00000000</i>
  </separator>
 </parameters>
 <atominfo>
  <atoms>      97 </atoms>
  <types>       3 </types>
  <array name="atoms" >
   <dimension dim="1">ion</dimension>
   <field type="string">element</field>
   <field type="int">atomtype</field>
   <set>
    <rc><c>B </c><c>   1</c></rc>
    <rc><c>B </c><c>   1</c></rc>
    <rc><c>B </c><c>   1</c></rc>
    <rc><c>B </c><c>   1</c></rc>
    <rc><c>B </c><c>   1</c></rc>
    <rc><c>B </c><c>   1</c></rc>
    <rc><c>B </c><c>   1</c></rc>
    <rc><c>B </c><c>   1</c></rc>
    <rc><c>B </c><c>   1</c></rc>
    <rc><c>B </c><c>   1</c></rc>
    <rc><c>B </c><c>   1</c></rc>
    <rc><c>B </c><c>   1</c></rc>
    <rc><c>B </c><c>   1</c></rc>
    <rc><c>B </c><c>   1</c></rc>
    <rc><c>B </c><c>   1</c></rc>
    <rc><c>B </c><c>   1</c></rc>
    <rc><c>B </c><c>   1</c></rc>
    <rc><c>B </c><c>   1</c></rc>
    <rc><c>B </c><c>   1</c></rc>
    <rc><c>B </c><c>   1</c></rc>
    <rc><c>B </c><c>   1</c></rc>
    <rc><c>B </c><c>   1</c></rc>
    <rc><c>B </c><c>   1</c></rc>
    <rc><c>B </c><c>   1</c></rc>
    <rc><c>B </c><c>   1</c></rc>
    <rc><c>B </c><c>   1</c></rc>
    <rc><c>B </c><c>   1</c></rc>
    <rc><c>B </c><c>   1</c></rc>
    <rc><c>B </c><c>   1</c></rc>
    <rc><c>B </c><c>   1</c></rc>
    <rc><c>B </c><c>   1</c></rc>
    <rc><c>B </c><c>   1</c></rc>
    <rc><c>B </c><c>   1</c></rc>
    <rc><c>B </c><c>   1</c></rc>
    <rc><c>B </c><c>   1</c></rc>
    <rc><c>B </c><c>   1</c></rc>
    <rc><c>B </c><c>   1</c></rc>
    <rc><c>B </c><c>   1</c></rc>
    <rc><c>B </c><c>   1</c></rc>
    <rc><c>B </c><c>   1</c></rc>
    <rc><c>B </c><c>   1</c></rc>
    <rc><c>B </c><c>   1</c></rc>
    <rc><c>B </c><c>   1</c></rc>
    <rc><c>B </c><c>   1</c></rc>
    <rc><c>B </c><c>   1</c></rc>
    <rc><c>B </c><c>   1</c></rc>
    <rc><c>B </c><c>   1</c></rc>
    <rc><c>B </c><c>   1</c></rc>
    <rc><c>N </c><c>   2</c></rc>
    <rc><c>N </c><c>   2</c></rc>
    <rc><c>N </c><c>   2</c></rc>
    <rc><c>N </c><c>   2</c></rc>
    <rc><c>N </c><c>   2</c></rc>
    <rc><c>N </c><c>   2</c></rc>
    <rc><c>N </c><c>   2</c></rc>
    <rc><c>N </c><c>   2</c></rc>
    <rc><c>N </c><c>   2</c></rc>
    <rc><c>N </c><c>   2</c></rc>
    <rc><c>N </c><c>   2</c></rc>
    <rc><c>N </c><c>   2</c></rc>
    <rc><c>N </c><c>   2</c></rc>
    <rc><c>N </c><c>   2</c></rc>
    <rc><c>N </c><c>   2</c></rc>
    <rc><c>N </c><c>   2</c></rc>
    <rc><c>N </c><c>   2</c></rc>
    <rc><c>N </c><c>   2</c></rc>
    <rc><c>N </c><c>   2</c></rc>
    <rc><c>N </c><c>   2</c></rc>
    <rc><c>N </c><c>   2</c></rc>
    <rc><c>N </c><c>   2</c></rc>
    <rc><c>N </c><c>   2</c></rc>
    <rc><c>N </c><c>   2</c></rc>
    <rc><c>N </c><c>   2</c></rc>
    <rc><c>N </c><c>   2</c></rc>
    <rc><c>N </c><c>   2</c></rc>
    <rc><c>N </c><c>   2</c></rc>
    <rc><c>N </c><c>   2</c></rc>
    <rc><c>N </c><c>   2</c></rc>
    <rc><c>N </c><c>   2</c></rc>
    <rc><c>N </c><c>   2</c></rc>
    <rc><c>N </c><c>   2</c></rc>
    <rc><c>N </c><c>   2</c></rc>
    <rc><c>N </c><c>   2</c></rc>
    <rc><c>N </c><c>   2</c></rc>
    <rc><c>N </c><c>   2</c></rc>
    <rc><c>N </c><c>   2</c></rc>
    <rc><c>N </c><c>   2</c></rc>
    <rc><c>N </c><c>   2</c></rc>
    <rc><c>N </c><c>   2</c></rc>
    <rc><c>N </c><c>   2</c></rc>
    <rc><c>N </c><c>   2</c></rc>
    <rc><c>N </c><c>   2</c></rc>
    <rc><c>N </c><c>   2</c></rc>
    <rc><c>N </c><c>   2</c></rc>
    <rc><c>N </c><c>   2</c></rc>
    <rc><c>N </c><c>   2</c></rc>
    <rc><c>C </c><c>   3</c></rc>
   </set>
  </array>
  <array name="atomtypes" >
   <dimension dim="1">type</dimension>
   <field type="int">atomspertype</field>
   <field type="string">element</field>
   <field>mass</field>
   <field>valence</field>
   <field type="string">pseudopotential</field>
   <set>
    <rc><c>  48</c><c>B </c><c>     10.81100000</c><c>      3.00000000</c><c>  PAW_PBE B 06Sep2000                   </c></rc>
    <rc><c>  48</c><c>N </c><c>     14.00100000</c><c>      5.00000000</c><c>  PAW_PBE N 08Apr2002                   </c></rc>
    <rc><c>   1</c><c>C </c><c>     12.01100000</c><c>      4.00000000</c><c>  PAW_PBE C 08Apr2002                   </c></rc>
   </set>
  </array>
 </atominfo>
 <structure name="initialpos" >
  <crystal>
   <varray name="basis" >
    <v>      17.59966831       0.00000000       0.00000000 </v>
    <v>      -8.79983416      15.24175986       0.00000000 </v>
    <v>       0.00000000       0.00000000      19.92151445 </v>
   </varray>
   <i name="volume">   5343.94461817 </i>
   <varray name="rec_basis" >
    <v>       0.05681925       0.03280461       0.00000000 </v>
    <v>       0.00000000       0.06560922       0.00000000 </v>
    <v>       0.00000000       0.00000000       0.05019699 </v>
   </varray>
  </crystal>
  <varray name="positions" >
   <v>       0.99943010       0.00005992       0.50000000 </v>
   <v>       0.14164706       0.99871895       0.50000000 </v>
   <v>       0.28492260       0.99841663       0.50000000 </v>
   <v>       0.42850047       0.99871895       0.50000000 </v>
   <v>       0.57205839       0.00005992       0.50000000 </v>
   <v>       0.71530655       0.00214292       0.50000000 </v>
   <v>       0.85826494       0.00214292       0.50000000 </v>
   <v>       0.00080792       0.14408264       0.50000000 </v>
   <v>       0.14259355       0.14244783       0.50000000 </v>
   <v>       0.28470221       0.14112972       0.50000000 </v>
   <v>       0.42785608       0.14112972       0.50000000 </v>
   <v>       0.57128286       0.14244783       0.50000000 </v>
   <v>       0.71470329       0.14408264       0.50000000 </v>
   <v>       0.85805263       0.14467669       0.50000000 </v>
   <v>       0.00095476       0.28713011       0.50000000 </v>
   <v>       0.14372552       0.28645370       0.50000000 </v>
   <v>       0.28540977       0.28469374       0.50000000 </v>
   <v>       0.42724431       0.28306005       0.50000000 </v>
   <v>       0.57071254       0.28469374       0.50000000 </v>
   <v>       0.71415674       0.28645370       0.50000000 </v>
   <v>       0.85760392       0.28713011       0.50000000 </v>
   <v>       0.00054479       0.42928482       0.49962381 </v>
   <v>       0.14422690       0.42957551       0.50000000 </v>
   <v>       0.28730213       0.42918005       0.50000000 </v>
   <v>       0.42797654       0.42569726       0.50000000 </v>
   <v>       0.56914930       0.42569726       0.50000000 </v>
   <v>       0.71330650       0.42918005       0.50000000 </v>
   <v>       0.85677719       0.42957551       0.50000000 </v>
   <v>       0.99928255       0.57181462       0.50000000 </v>
   <v>       0.14396064       0.57181462       0.50000000 </v>
   <v>       0.28862787       0.57181625       0.50000000 </v>
   <v>       0.43313209       0.57215564       0.50000000 </v>
   <v>       0.71045212       0.57215564       0.50000000 </v>
   <v>       0.85461695       0.57181625       0.50000000 </v>
   <v>       0.99707234       0.71370518       0.50000000 </v>
   <v>       0.14255519       0.71368182       0.50000000 </v>
   <v>       0.28806142       0.71370518       0.50000000 </v>
   <v>       0.43464191       0.71382540       0.50000000 </v>
   <v>       0.58510826       0.71626937       0.50000000 </v>
   <v>       0.70258968       0.71626937       0.50000000 </v>
   <v>       0.85061206       0.71382540       0.50000000 </v>
   <v>       0.99777175       0.85613493       0.50000000 </v>
   <v>       0.14160898       0.85591288       0.50000000 </v>
   <v>       0.28573247       0.85591288       0.50000000 </v>
   <v>       0.42979175       0.85613493       0.50000000 </v>
   <v>       0.57342541       0.85758690       0.50000000 </v>
   <v>       0.71640633       0.86138410       0.50000000 </v>
   <v>       0.85559006       0.85758690       0.50000000 </v>
   <v>       0.04754270       0.09547788       0.50000000 </v>
   <v>       0.18957833       0.09405657       0.50000000 </v>
   <v>       0.33254182       0.09365506       0.50000000 </v>
   <v>       0.47590681       0.09405657       0.50000000 </v>
   <v>       0.61936376       0.09547788       0.50000000 </v>
   <v>       0.76280004       0.09719274       0.50000000 </v>
   <v>       0.90582126       0.09719274       0.50000000 </v>
   <v>       0.04854983       0.23934281       0.50000000 </v>
   <v>       0.19048138       0.23782962       0.50000000 </v>
   <v>       0.33234878       0.23634667       0.50000000 </v>
   <v>       0.47542646       0.23634667       0.50000000 </v>
   <v>       0.61877681       0.23782962       0.50000000 </v>
   <v>       0.76222155       0.23934281       0.50000000 </v>
   <v>       0.90562797       0.23982737       0.50000000 </v>
   <v>       0.04871288       0.38232824       0.50000000 </v>
   <v>       0.19188940       0.38184213       0.50000000 </v>
   <v>       0.33352206       0.38013969       0.50000000 </v>
   <v>       0.47472270       0.37801683       0.50000000 </v>
   <v>       0.61804620       0.38013969       0.50000000 </v>
   <v>       0.76138130       0.38184213       0.50000000 </v>
   <v>       0.90504393       0.38232824       0.50000000 </v>
   <v>       0.04810654       0.52478452       0.50000000 </v>
   <v>       0.19263929       0.52476864       0.50000000 </v>
   <v>       0.33696521       0.52455433       0.50000000 </v>
   <v>       0.47833704       0.52146721       0.50000000 </v>
   <v>       0.61455874       0.52146721       0.50000000 </v>
   <v>       0.75901769       0.52455433       0.50000000 </v>
   <v>       0.90355792       0.52476864       0.50000000 </v>
   <v>       0.04642473       0.66685228       0.50000000 </v>
   <v>       0.19185612       0.66685228       0.50000000 </v>
   <v>       0.33777931       0.66688794       0.50000000 </v>
   <v>       0.48615700       0.66710760       0.50000000 </v>
   <v>       0.75237918       0.66710760       0.50000000 </v>
   <v>       0.90053720       0.66688794       0.50000000 </v>
   <v>       0.04582562       0.80879365       0.50000000 </v>
   <v>       0.19009580       0.80876303       0.50000000 </v>
   <v>       0.33439660       0.80879365       0.50000000 </v>
   <v>       0.47844872       0.80897069       0.50000000 </v>
   <v>       0.62209487       0.81129474       0.50000000 </v>
   <v>       0.76062845       0.81129474       0.50000000 </v>
   <v>       0.90195054       0.80897069       0.50000000 </v>
   <v>       0.04629157       0.95154386       0.50000000 </v>
   <v>       0.18948291       0.95113037       0.50000000 </v>
   <v>       0.33307603       0.95113037       0.50000000 </v>
   <v>       0.47668087       0.95154386       0.50000000 </v>
   <v>       0.62015751       0.95313740       0.50000000 </v>
   <v>       0.76355772       0.95568687       0.50000000 </v>
   <v>       0.90440847       0.95313740       0.50000000 </v>
   <v>       0.56830873       0.56518888       0.50000000 </v>
  </varray>
 </structure>
 <calculation>
  <scstep>
   <time name="dav">    2.35    2.38</time>
   <time name="total">    2.73    2.82</time>
   <energy>
    <i name="alphaZ">    156.50993408 </i>
    <i name="ewald">  58206.77162856 </i>
    <i name="hartreedc"> -70374.20238313 </i>
    <i name="XCdc">   1302.10853837 </i>
    <i name="pawpsdc">  12033.28670802 </i>
    <i name="pawaedc"> -12049.96799276 </i>
    <i name="eentropy">     -0.00000000 </i>
    <i name="bandstr">   -904.53110268 </i>
    <i name="atom">  16260.93880140 </i>
    <i name="e_fr_energy">   4630.91413186 </i>
    <i name="e_wo_entrp">   4630.91413186 </i>
    <i name="e_0_energy">   4630.91413186 </i>
   </energy>
  </scstep>
  <scstep>
   <time name="dav">    3.00    3.04</time>
   <time name="total">    3.00    3.04</time>
   <energy>
    <i name="e_fr_energy">    216.70952416 </i>
    <i name="e_wo_entrp">    216.70952416 </i>
    <i name="e_0_energy">    216.70952416 </i>
   </energy>
  </scstep>
  <scstep>
   <time name="dav">    2.47    2.51</time>
   <time name="total">    2.47    2.51</time>
   <energy>
    <i name="e_fr_energy">   -867.45824241 </i>
    <i name="e_wo_entrp">   -867.45824241 </i>
    <i name="e_0_energy">   -867.45824241 </i>
   </energy>
  </scstep>
  <scstep>
   <time name="dav">    2.47    2.50</time>
   <time name="total">    2.47    2.50</time>
   <energy>
    <i name="e_fr_energy">   -934.19455823 </i>
    <i name="e_wo_entrp">   -934.19455823 </i>
    <i name="e_0_energy">   -934.19455823 </i>
   </energy>
  </scstep>
  <scstep>
   <time name="dav">    2.50    2.53</time>
   <time name="total">    2.74    2.78</time>
   <energy>
    <i name="e_fr_energy">   -935.77505007 </i>
    <i name="e_wo_entrp">   -935.77505007 </i>
    <i name="e_0_energy">   -935.77505007 </i>
   </energy>
  </scstep>
  <scstep>
   <time name="dav">    2.34    2.35</time>
   <time name="total">    2.94    2.97</time>
   <energy>
    <i name="e_fr_energy">   -858.72934502 </i>
    <i name="e_wo_entrp">   -858.72934502 </i>
    <i name="e_0_energy">   -858.72934502 </i>
   </energy>
  </scstep>
  <scstep>
   <time name="dav">    2.35    2.37</time>
   <time name="total">    2.97    3.00</time>
   <energy>
    <i name="e_fr_energy">   -850.19362207 </i>
    <i name="e_wo_entrp">   -850.19362207 </i>
    <i name="e_0_energy">   -850.19362207 </i>
   </energy>
  </scstep>
  <scstep>
   <time name="dav">    2.28    2.30</time>
   <time name="total">    2.89    2.92</time>
   <energy>
    <i name="e_fr_energy">   -845.92740001 </i>
    <i name="e_wo_entrp">   -845.92739902 </i>
    <i name="e_0_energy">   -845.92739951 </i>
   </energy>
  </scstep>
  <scstep>
   <time name="dav">    2.31    2.33</time>
   <time name="total">    2.92    2.96</time>
   <energy>
    <i name="e_fr_energy">   -845.80156795 </i>
    <i name="e_wo_entrp">   -845.80156795 </i>
    <i name="e_0_energy">   -845.80156795 </i>
   </energy>
  </scstep>
  <scstep>
   <time name="dav">    2.37    2.39</time>
   <time name="total">    2.99    3.02</time>
   <energy>
    <i name="e_fr_energy">   -845.64058985 </i>
    <i name="e_wo_entrp">   -845.64058985 </i>
    <i name="e_0_energy">   -845.64058985 </i>
   </energy>
  </scstep>
  <scstep>
   <time name="dav">    2.20    2.22</time>
   <time name="total">    2.81    2.85</time>
   <energy>
    <i name="e_fr_energy">   -845.59057349 </i>
    <i name="e_wo_entrp">   -845.59057349 </i>
    <i name="e_0_energy">   -845.59057349 </i>
   </energy>
  </scstep>
  <scstep>
   <time name="dav">    2.25    2.27</time>
   <time name="total">    2.87    2.90</time>
   <energy>
    <i name="e_fr_energy">   -845.57747388 </i>
    <i name="e_wo_entrp">   -845.57747388 </i>
    <i name="e_0_energy">   -845.57747388 </i>
   </energy>
  </scstep>
  <scstep>
   <time name="dav">    2.23    2.24</time>
   <time name="total">    2.84    2.87</time>
   <energy>
    <i name="e_fr_energy">   -845.57660426 </i>
    <i name="e_wo_entrp">   -845.57660426 </i>
    <i name="e_0_energy">   -845.57660426 </i>
   </energy>
  </scstep>
  <scstep>
   <time name="dav">    2.23    2.25</time>
   <time name="total">    2.84    2.88</time>
   <energy>
    <i name="e_fr_energy">   -845.58223372 </i>
    <i name="e_wo_entrp">   -845.58223372 </i>
    <i name="e_0_energy">   -845.58223372 </i>
   </energy>
  </scstep>
  <scstep>
   <time name="dav">    2.22    2.24</time>
   <time name="total">    2.84    2.87</time>
   <energy>
    <i name="e_fr_energy">   -845.60553426 </i>
    <i name="e_wo_entrp">   -845.60553426 </i>
    <i name="e_0_energy">   -845.60553426 </i>
   </energy>
  </scstep>
  <scstep>
   <time name="dav">    2.15    2.17</time>
   <time name="total">    2.76    2.80</time>
   <energy>
    <i name="e_fr_energy">   -845.63102931 </i>
    <i name="e_wo_entrp">   -845.63102931 </i>
    <i name="e_0_energy">   -845.63102931 </i>
   </energy>
  </scstep>
  <scstep>
   <time name="dav">    2.26    2.28</time>
   <time name="total">    2.88    2.91</time>
   <energy>
    <i name="e_fr_energy">   -845.64484017 </i>
    <i name="e_wo_entrp">   -845.64484017 </i>
    <i name="e_0_energy">   -845.64484017 </i>
   </energy>
  </scstep>
  <scstep>
   <time name="dav">    2.25    2.27</time>
   <time name="total">    2.87    2.90</time>
   <energy>
    <i name="e_fr_energy">   -845.65052485 </i>
    <i name="e_wo_entrp">   -845.65052485 </i>
    <i name="e_0_energy">   -845.65052485 </i>
   </energy>
  </scstep>
  <scstep>
   <time name="dav">    2.24    2.26</time>
   <time name="total">    2.86    2.90</time>
   <energy>
    <i name="e_fr_energy">   -845.65260906 </i>
    <i name="e_wo_entrp">   -845.65260906 </i>
    <i name="e_0_energy">   -845.65260906 </i>
   </energy>
  </scstep>
  <scstep>
   <time name="dav">    2.25    2.27</time>
   <time name="total">    3.10    3.13</time>
   <energy>
    <i name="e_fr_energy">   -845.65335210 </i>
    <i name="e_wo_entrp">   -845.65335210 </i>
    <i name="e_0_energy">   -845.65335210 </i>
   </energy>
  </scstep>
  <scstep>
   <time name="dav">    2.31    2.34</time>
   <time name="total">    2.95    3.02</time>
   <energy>
    <i name="e_fr_energy">   -845.65365034 </i>
    <i name="e_wo_entrp">   -845.65365034 </i>
    <i name="e_0_energy">   -845.65365034 </i>
   </energy>
  </scstep>
  <scstep>
   <time name="dav">    2.18    2.20</time>
   <time name="total">    2.79    2.83</time>
   <energy>
    <i name="e_fr_energy">   -845.65383449 </i>
    <i name="e_wo_entrp">   -845.65383449 </i>
    <i name="e_0_energy">   -845.65383449 </i>
   </energy>
  </scstep>
  <scstep>
   <time name="dav">    2.21    2.23</time>
   <time name="total">    2.82    2.86</time>
   <energy>
    <i name="e_fr_energy">   -845.65394819 </i>
    <i name="e_wo_entrp">   -845.65394819 </i>
    <i name="e_0_energy">   -845.65394819 </i>
   </energy>
  </scstep>
  <scstep>
   <time name="dav">    2.25    2.27</time>
   <time name="total">    2.86    2.90</time>
   <energy>
    <i name="e_fr_energy">   -845.65401975 </i>
    <i name="e_wo_entrp">   -845.65401975 </i>
    <i name="e_0_energy">   -845.65401975 </i>
   </energy>
  </scstep>
  <scstep>
   <time name="dav">    2.25    2.27</time>
   <time name="total">    2.87    2.90</time>
   <energy>
    <i name="e_fr_energy">   -845.65405170 </i>
    <i name="e_wo_entrp">   -845.65405170 </i>
    <i name="e_0_energy">   -845.65405170 </i>
   </energy>
  </scstep>
  <scstep>
   <time name="dav">    2.26    2.28</time>
   <time name="total">    2.88    2.91</time>
   <energy>
    <i name="e_fr_energy">   -845.65406961 </i>
    <i name="e_wo_entrp">   -845.65406961 </i>
    <i name="e_0_energy">   -845.65406961 </i>
   </energy>
  </scstep>
  <scstep>
   <time name="dav">    2.28    2.30</time>
   <time name="total">    2.89    2.93</time>
   <energy>
    <i name="e_fr_energy">   -845.65407540 </i>
    <i name="e_wo_entrp">   -845.65407540 </i>
    <i name="e_0_energy">   -845.65407540 </i>
   </energy>
  </scstep>
  <scstep>
   <time name="dav">    1.96    1.97</time>
   <time name="total">    2.57    2.61</time>
   <energy>
    <i name="e_fr_energy">   -845.65407773 </i>
    <i name="e_wo_entrp">   -845.65407773 </i>
    <i name="e_0_energy">   -845.65407773 </i>
   </energy>
  </scstep>
  <scstep>
   <time name="dav">    1.96    1.98</time>
   <time name="total">    2.59    2.62</time>
   <energy>
    <i name="e_fr_energy">   -845.65407864 </i>
    <i name="e_wo_entrp">   -845.65407864 </i>
    <i name="e_0_energy">   -845.65407864 </i>
   </energy>
  </scstep>
  <scstep>
   <time name="dav">    1.70    1.72</time>
   <time name="total">    2.33    2.35</time>
   <energy>
    <i name="e_fr_energy">   -845.65407879 </i>
    <i name="e_wo_entrp">   -845.65407879 </i>
    <i name="e_0_energy">   -845.65407879 </i>
   </energy>
  </scstep>
  <scstep>
   <time name="dav">    1.66    1.68</time>
   <time name="total">    2.29    2.32</time>
   <energy>
    <i name="e_fr_energy">   -845.65407887 </i>
    <i name="e_wo_entrp">   -845.65407887 </i>
    <i name="e_0_energy">   -845.65407887 </i>
   </energy>
  </scstep>
  <scstep>
   <time name="dav">    1.76    1.78</time>
   <time name="total">    2.39    2.41</time>
   <energy>
    <i name="e_fr_energy">   -845.65407888 </i>
    <i name="e_wo_entrp">   -845.65407888 </i>
    <i name="e_0_energy">   -845.65407888 </i>
   </energy>
  </scstep>
  <scstep>
   <time name="dav">    1.75    1.76</time>
   <time name="total">    2.12    2.14</time>
   <energy>
    <i name="alphaZ">    156.50993408 </i>
    <i name="ewald">  58206.77162856 </i>
    <i name="hartreedc"> -72314.27403114 </i>
    <i name="XCdc">   1369.72342280 </i>
    <i name="pawpsdc">  44018.59321660 </i>
    <i name="pawaedc"> -44053.93498188 </i>
    <i name="eentropy">     -0.00000000 </i>
    <i name="bandstr">  -4489.98206932 </i>
    <i name="atom">  16260.93880140 </i>
    <i name="e_fr_energy">   -845.65407889 </i>
    <i name="e_wo_entrp">   -845.65407889 </i>
    <i name="e_0_energy">   -845.65407889 </i>
   </energy>
  </scstep>
  <structure>
   <crystal>
    <varray name="basis" >
     <v>      17.59966831       0.00000000       0.00000000 </v>
     <v>      -8.79983416      15.24175986       0.00000000 </v>
     <v>       0.00000000       0.00000000      19.92151445 </v>
    </varray>
    <i name="volume">   5343.94461817 </i>
    <varray name="rec_basis" >
     <v>       0.05681925       0.03280461       0.00000000 </v>
     <v>       0.00000000       0.06560922       0.00000000 </v>
     <v>       0.00000000       0.00000000       0.05019699 </v>
    </varray>
   </crystal>
   <varray name="positions" >
    <v>       0.99943010       0.00005992       0.50000000 </v>
    <v>       0.14164706       0.99871895       0.50000000 </v>
    <v>       0.28492260       0.99841663       0.50000000 </v>
    <v>       0.42850047       0.99871895       0.50000000 </v>
    <v>       0.57205839       0.00005992       0.50000000 </v>
    <v>       0.71530655       0.00214292       0.50000000 </v>
    <v>       0.85826494       0.00214292       0.50000000 </v>
    <v>       0.00080792       0.14408264       0.50000000 </v>
    <v>       0.14259355       0.14244783       0.50000000 </v>
    <v>       0.28470221       0.14112972       0.50000000 </v>
    <v>       0.42785608       0.14112972       0.50000000 </v>
    <v>       0.57128286       0.14244783       0.50000000 </v>
    <v>       0.71470329       0.14408264       0.50000000 </v>
    <v>       0.85805263       0.14467669       0.50000000 </v>
    <v>       0.00095476       0.28713011       0.50000000 </v>
    <v>       0.14372552       0.28645370       0.50000000 </v>
    <v>       0.28540977       0.28469374       0.50000000 </v>
    <v>       0.42724431       0.28306005       0.50000000 </v>
    <v>       0.57071254       0.28469374       0.50000000 </v>
    <v>       0.71415674       0.28645370       0.50000000 </v>
    <v>       0.85760392       0.28713011       0.50000000 </v>
    <v>       0.00054479       0.42928482       0.49962381 </v>
    <v>       0.14422690       0.42957551       0.50000000 </v>
    <v>       0.28730213       0.42918005       0.50000000 </v>
    <v>       0.42797654       0.42569726       0.50000000 </v>
    <v>       0.56914930       0.42569726       0.50000000 </v>
    <v>       0.71330650       0.42918005       0.50000000 </v>
    <v>       0.85677719       0.42957551       0.50000000 </v>
    <v>       0.99928255       0.57181462       0.50000000 </v>
    <v>       0.14396064       0.57181462       0.50000000 </v>
    <v>       0.28862787       0.57181625       0.50000000 </v>
    <v>       0.43313209       0.57215564       0.50000000 </v>
    <v>       0.71045212       0.57215564       0.50000000 </v>
    <v>       0.85461695       0.57181625       0.50000000 </v>
    <v>       0.99707234       0.71370518       0.50000000 </v>
    <v>       0.14255519       0.71368182       0.50000000 </v>
    <v>       0.28806142       0.71370518       0.50000000 </v>
    <v>       0.43464191       0.71382540       0.50000000 </v>
    <v>       0.58510826       0.71626937       0.50000000 </v>
    <v>       0.70258968       0.71626937       0.50000000 </v>
    <v>       0.85061206       0.71382540       0.50000000 </v>
    <v>       0.99777175       0.85613493       0.50000000 </v>
    <v>       0.14160898       0.85591288       0.50000000 </v>
    <v>       0.28573247       0.85591288       0.50000000 </v>
    <v>       0.42979175       0.85613493       0.50000000 </v>
    <v>       0.57342541       0.85758690       0.50000000 </v>
    <v>       0.71640633       0.86138410       0.50000000 </v>
    <v>       0.85559006       0.85758690       0.50000000 </v>
    <v>       0.04754270       0.09547788       0.50000000 </v>
    <v>       0.18957833       0.09405657       0.50000000 </v>
    <v>       0.33254182       0.09365506       0.50000000 </v>
    <v>       0.47590681       0.09405657       0.50000000 </v>
    <v>       0.61936376       0.09547788       0.50000000 </v>
    <v>       0.76280004       0.09719274       0.50000000 </v>
    <v>       0.90582126       0.09719274       0.50000000 </v>
    <v>       0.04854983       0.23934281       0.50000000 </v>
    <v>       0.19048138       0.23782962       0.50000000 </v>
    <v>       0.33234878       0.23634667       0.50000000 </v>
    <v>       0.47542646       0.23634667       0.50000000 </v>
    <v>       0.61877681       0.23782962       0.50000000 </v>
    <v>       0.76222155       0.23934281       0.50000000 </v>
    <v>       0.90562797       0.23982737       0.50000000 </v>
    <v>       0.04871288       0.38232824       0.50000000 </v>
    <v>       0.19188940       0.38184213       0.50000000 </v>
    <v>       0.33352206       0.38013969       0.50000000 </v>
    <v>       0.47472270       0.37801683       0.50000000 </v>
    <v>       0.61804620       0.38013969       0.50000000 </v>
    <v>       0.76138130       0.38184213       0.50000000 </v>
    <v>       0.90504393       0.38232824       0.50000000 </v>
    <v>       0.04810654       0.52478452       0.50000000 </v>
    <v>       0.19263929       0.52476864       0.50000000 </v>
    <v>       0.33696521       0.52455433       0.50000000 </v>
    <v>       0.47833704       0.52146721       0.50000000 </v>
    <v>       0.61455874       0.52146721       0.50000000 </v>
    <v>       0.75901769       0.52455433       0.50000000 </v>
    <v>       0.90355792       0.52476864       0.50000000 </v>
    <v>       0.04642473       0.66685228       0.50000000 </v>
    <v>       0.19185612       0.66685228       0.50000000 </v>
    <v>       0.33777931       0.66688794       0.50000000 </v>
    <v>       0.48615700       0.66710760       0.50000000 </v>
    <v>       0.75237918       0.66710760       0.50000000 </v>
    <v>       0.90053720       0.66688794       0.50000000 </v>
    <v>       0.04582562       0.80879365       0.50000000 </v>
    <v>       0.19009580       0.80876303       0.50000000 </v>
    <v>       0.33439660       0.80879365       0.50000000 </v>
    <v>       0.47844872       0.80897069       0.50000000 </v>
    <v>       0.62209487       0.81129474       0.50000000 </v>
    <v>       0.76062845       0.81129474       0.50000000 </v>
    <v>       0.90195054       0.80897069       0.50000000 </v>
    <v>       0.04629157       0.95154386       0.50000000 </v>
    <v>       0.18948291       0.95113037       0.50000000 </v>
    <v>       0.33307603       0.95113037       0.50000000 </v>
    <v>       0.47668087       0.95154386       0.50000000 </v>
    <v>       0.62015751       0.95313740       0.50000000 </v>
    <v>       0.76355772       0.95568687       0.50000000 </v>
    <v>       0.90440847       0.95313740       0.50000000 </v>
    <v>       0.56830873       0.56518888       0.50000000 </v>
   </varray>
  </structure>
  <varray name="forces" >
   <v>      -0.03886744      -0.02841020      -0.00000696 </v>
   <v>      -0.02103505      -0.01111034       0.00001536 </v>
   <v>       0.00013929      -0.01395849       0.00001275 </v>
   <v>       0.02126586      -0.01030801       0.00001537 </v>
   <v>       0.03876436      -0.02686686      -0.00000706 </v>
   <v>      -0.03410190      -0.05092618       0.00001499 </v>
   <v>       0.03378023      -0.05210063       0.00001500 </v>
   <v>      -0.00559160      -0.03117758       0.00047490 </v>
   <v>      -0.02583651      -0.02721512       0.00001451 </v>
   <v>      -0.00685239      -0.03423933       0.00001262 </v>
   <v>       0.00783604      -0.03385933       0.00001262 </v>
   <v>       0.02664287      -0.02542020       0.00001437 </v>
   <v>       0.00401638      -0.02629492       0.00047656 </v>
   <v>      -0.00039439      -0.04581840      -0.00008462 </v>
   <v>       0.00061169      -0.05765504      -0.00012763 </v>
   <v>       0.00918103      -0.04607164      -0.00007384 </v>
   <v>      -0.02860131      -0.00249402       0.00001310 </v>
   <v>       0.00083010      -0.09375389       0.00001519 </v>
   <v>       0.03068145      -0.00234129       0.00001291 </v>
   <v>      -0.00566394      -0.04369878      -0.00007554 </v>
   <v>      -0.00858945      -0.02998078      -0.00014889 </v>
   <v>      -0.16424819       0.29089459       0.10694424 </v>
   <v>      -0.00556420       0.01937265      -0.00047342 </v>
   <v>       0.06089161      -0.13473266       0.00046946 </v>
   <v>      -0.11063421      -0.19930601      -0.00000493 </v>
   <v>       0.11263403      -0.19985830      -0.00000513 </v>
   <v>      -0.05695100      -0.13656102       0.00047245 </v>
   <v>       0.03422934       0.01312708      -0.00056646 </v>
   <v>       0.03680204       0.00712549      -0.00034426 </v>
   <v>      -0.04472879       0.02218768      -0.00027030 </v>
   <v>      -0.08585831       0.12891598      -0.00007523 </v>
   <v>       0.05149767       0.39744505       0.00001316 </v>
   <v>      -0.04922629       0.39644041       0.00001295 </v>
   <v>       0.08949007       0.12647329      -0.00007422 </v>
   <v>      -0.00495859       0.01995588       0.00048820 </v>
   <v>      -0.00036897       0.02352033      -0.00008978 </v>
   <v>       0.00340275       0.02128910       0.00048671 </v>
   <v>       0.08541458       0.04278856       0.00001144 </v>
   <v>       1.36440434       1.25050451       0.00000477 </v>
   <v>      -1.36365616       1.24999199       0.00000478 </v>
   <v>      -0.08457070       0.04185834       0.00001126 </v>
   <v>      -0.04535855      -0.00940844      -0.00000951 </v>
   <v>      -0.01193093      -0.00627103       0.00001653 </v>
   <v>       0.01161869      -0.00597348       0.00001657 </v>
   <v>       0.04524794      -0.00849846      -0.00000945 </v>
   <v>       0.15036119       0.03558838       0.00001623 </v>
   <v>       0.00018970      -0.25362034       0.00001227 </v>
   <v>      -0.15016943       0.03475843       0.00001623 </v>
   <v>       0.02526959       0.03437156      -0.00014150 </v>
   <v>       0.00941896       0.02472009       0.00000079 </v>
   <v>      -0.00048621       0.02834725      -0.00001721 </v>
   <v>      -0.01049003       0.02382147       0.00000113 </v>
   <v>      -0.02571201       0.03220402      -0.00014233 </v>
   <v>      -0.01059890       0.02866283      -0.00004707 </v>
   <v>       0.01268461       0.03008287      -0.00004721 </v>
   <v>       0.01150384       0.04007387       0.00208268 </v>
   <v>      -0.01143426       0.00493178      -0.00018538 </v>
   <v>       0.01446954       0.03633252       0.00000128 </v>
   <v>      -0.01621741       0.03600498       0.00000148 </v>
   <v>       0.00868977       0.00323935      -0.00018576 </v>
   <v>      -0.01501789       0.03189396       0.00209225 </v>
   <v>       0.00725129       0.03703947      -0.00155653 </v>
   <v>       0.10380038      -0.05741771      -0.03751950 </v>
   <v>       0.03928038       0.05835072       0.00208142 </v>
   <v>      -0.02392010      -0.20054759      -0.00014657 </v>
   <v>      -0.00090033       0.11020619      -0.00000391 </v>
   <v>       0.02125133      -0.20043160      -0.00014725 </v>
   <v>      -0.04570115       0.05661740       0.00209335 </v>
   <v>       0.01654896      -0.01983900      -0.03801139 </v>
   <v>       0.02697830      -0.11456677      -0.03823916 </v>
   <v>       0.03262151      -0.01954156      -0.00150734 </v>
   <v>       0.18990171       0.11008034      -0.00004763 </v>
   <v>       1.02215213      -1.56419963      -0.00000171 </v>
   <v>      -1.02404002      -1.56354472      -0.00000150 </v>
   <v>      -0.19255245       0.11171987      -0.00004807 </v>
   <v>      -0.03449102      -0.01026321      -0.00149847 </v>
   <v>       0.00806497      -0.02679674       0.00208180 </v>
   <v>      -0.00418724      -0.02607085       0.00207871 </v>
   <v>      -0.05663127      -0.06764911      -0.00004941 </v>
   <v>      -0.27009555       0.00860281      -0.00001370 </v>
   <v>       0.26908703       0.00947217      -0.00001382 </v>
   <v>       0.05619595      -0.06522726      -0.00004987 </v>
   <v>       0.03507023      -0.01073137      -0.00014853 </v>
   <v>       0.00016666      -0.00799752      -0.00016426 </v>
   <v>      -0.03464252      -0.01140867      -0.00014861 </v>
   <v>      -0.08434842      -0.01312344      -0.00000870 </v>
   <v>      -0.88601789       0.24421331      -0.00001028 </v>
   <v>       0.88585308       0.24475531      -0.00001000 </v>
   <v>       0.08415223      -0.01210766      -0.00000895 </v>
   <v>       0.03079647       0.01878522      -0.00000508 </v>
   <v>       0.00940085      -0.00184687      -0.00000107 </v>
   <v>      -0.00974213      -0.00220664      -0.00000101 </v>
   <v>      -0.03101048       0.01781780      -0.00000511 </v>
   <v>      -0.10983593       0.11977771      -0.00001056 </v>
   <v>       0.00035982       0.01752541      -0.00001547 </v>
   <v>       0.11007558       0.12075968      -0.00001060 </v>
   <v>       0.00085312      -0.11919901      -0.00001459 </v>
  </varray>
  <varray name="stress" >
   <v>     -10.58523705      -0.01103820       0.00036897 </v>
   <v>      -0.01103819       3.01441030      -0.00065334 </v>
   <v>       0.00036897      -0.00065335      -0.42579842 </v>
  </varray>
  <energy>
   <i name="e_fr_energy">   -845.65407889 </i>
   <i name="e_wo_entrp">   -845.65407889 </i>
   <i name="e_0_energy">     -0.00000000 </i>
  </energy>
  <time name="totalsc">   98.51   99.81</time>
  <eigenvalues>
   <array>
    <dimension dim="1">band</dimension>
    <dimension dim="2">kpoint</dimension>
    <dimension dim="3">spin</dimension>
    <field>eigene</field>
    <field>occ</field>
    <set>
     <set comment="spin 1">
      <set comment="kpoint 1">
       <r>  -22.5412    1.0000 </r>
       <r>  -22.0205    1.0000 </r>
       <r>  -21.7746    1.0000 </r>
       <r>  -21.7450    1.0000 </r>
       <r>  -21.6946    1.0000 </r>
       <r>  -21.6538    1.0000 </r>
       <r>  -21.6178    1.0000 </r>
       <r>  -21.2378    1.0000 </r>
       <r>  -21.0704    1.0000 </r>
       <r>  -21.0029    1.0000 </r>
       <r>  -20.9690    1.0000 </r>
       <r>  -20.9277    1.0000 </r>
       <r>  -20.8757    1.0000 </r>
       <r>  -20.7422    1.0000 </r>
       <r>  -20.7028    1.0000 </r>
       <r>  -20.6659    1.0000 </r>
       <r>  -20.5945    1.0000 </r>
       <r>  -20.5680    1.0000 </r>
       <r>  -20.4279    1.0000 </r>
       <r>  -19.9822    1.0000 </r>
       <r>  -19.9239    1.0000 </r>
       <r>  -19.8050    1.0000 </r>
       <r>  -19.7641    1.0000 </r>
       <r>  -19.7363    1.0000 </r>
       <r>  -19.7339    1.0000 </r>
       <r>  -19.7071    1.0000 </r>
       <r>  -19.6992    1.0000 </r>
       <r>  -19.6403    1.0000 </r>
       <r>  -19.6391    1.0000 </r>
       <r>  -19.6306    1.0000 </r>
       <r>  -19.4944    1.0000 </r>
       <r>  -19.4085    1.0000 </r>
       <r>  -19.3645    1.0000 </r>
       <r>  -19.3550    1.0000 </r>
       <r>  -19.2909    1.0000 </r>
       <r>  -19.2385    1.0000 </r>
       <r>  -19.1051    1.0000 </r>
       <r>  -19.0026    1.0000 </r>
       <r>  -18.9324    1.0000 </r>
       <r>  -18.8760    1.0000 </r>
       <r>  -18.8522    1.0000 </r>
       <r>  -18.8369    1.0000 </r>
       <r>  -18.7648    1.0000 </r>
       <r>  -18.7528    1.0000 </r>
       <r>  -18.7258    1.0000 </r>
       <r>  -18.7136    1.0000 </r>
       <r>  -18.6924    1.0000 </r>
       <r>  -18.4448    1.0000 </r>
       <r>  -14.1409    1.0000 </r>
       <r>  -13.1822    1.0000 </r>
       <r>  -13.1563    1.0000 </r>
       <r>  -13.1100    1.0000 </r>
       <r>  -13.1058    1.0000 </r>
       <r>  -13.0802    1.0000 </r>
       <r>  -13.0157    1.0000 </r>
       <r>  -12.9572    1.0000 </r>
       <r>  -12.9519    1.0000 </r>
       <r>  -12.9358    1.0000 </r>
       <r>  -12.8045    1.0000 </r>
       <r>  -12.7681    1.0000 </r>
       <r>  -12.6006    1.0000 </r>
       <r>  -12.5038    1.0000 </r>
       <r>  -12.4866    1.0000 </r>
       <r>  -12.3785    1.0000 </r>
       <r>  -12.3077    1.0000 </r>
       <r>  -12.2970    1.0000 </r>
       <r>  -12.1778    1.0000 </r>
       <r>  -11.9018    1.0000 </r>
       <r>  -11.8852    1.0000 </r>
       <r>  -11.7663    1.0000 </r>
       <r>  -11.7625    1.0000 </r>
       <r>  -11.7517    1.0000 </r>
       <r>  -11.7408    1.0000 </r>
       <r>  -11.6964    1.0000 </r>
       <r>  -11.6571    1.0000 </r>
       <r>  -11.6303    1.0000 </r>
       <r>  -11.5407    1.0000 </r>
       <r>  -11.4221    1.0000 </r>
       <r>  -11.1998    1.0000 </r>
       <r>  -11.1245    1.0000 </r>
       <r>  -11.0845    1.0000 </r>
       <r>  -11.0565    1.0000 </r>
       <r>  -10.9676    1.0000 </r>
       <r>  -10.9105    1.0000 </r>
       <r>  -10.6834    1.0000 </r>
       <r>  -10.4641    1.0000 </r>
       <r>  -10.4319    1.0000 </r>
       <r>  -10.3506    1.0000 </r>
       <r>  -10.2547    1.0000 </r>
       <r>  -10.2071    1.0000 </r>
       <r>   -9.8885    1.0000 </r>
       <r>   -9.7687    1.0000 </r>
       <r>   -9.7636    1.0000 </r>
       <r>   -9.7249    1.0000 </r>
       <r>   -9.6775    1.0000 </r>
       <r>   -9.5867    1.0000 </r>
       <r>   -9.5433    1.0000 </r>
       <r>   -9.4973    1.0000 </r>
       <r>   -9.4644    1.0000 </r>
       <r>   -9.3522    1.0000 </r>
       <r>   -9.3455    1.0000 </r>
       <r>   -9.2913    1.0000 </r>
       <r>   -9.2618    1.0000 </r>
       <r>   -9.2556    1.0000 </r>
       <r>   -9.2499    1.0000 </r>
       <r>   -9.2363    1.0000 </r>
       <r>   -9.2251    1.0000 </r>
       <r>   -9.2243    1.0000 </r>
       <r>   -9.2078    1.0000 </r>
       <r>   -9.2020    1.0000 </r>
       <r>   -9.1998    1.0000 </r>
       <r>   -9.1974    1.0000 </r>
       <r>   -9.1538    1.0000 </r>
       <r>   -9.1334    1.0000 </r>
       <r>   -9.1107    1.0000 </r>
       <r>   -9.1097    1.0000 </r>
       <r>   -9.1008    1.0000 </r>
       <r>   -9.0457    1.0000 </r>
       <r>   -8.9937    1.0000 </r>
       <r>   -8.8432    1.0000 </r>
       <r>   -8.7960    1.0000 </r>
       <r>   -8.6563    1.0000 </r>
       <r>   -8.5076    1.0000 </r>
       <r>   -8.4788    1.0000 </r>
       <r>   -8.4415    1.0000 </r>
       <r>   -8.3282    1.0000 </r>
       <r>   -8.2236    1.0000 </r>
       <r>   -8.2026    1.0000 </r>
       <r>   -8.1958    1.0000 </r>
       <r>   -8.1704    1.0000 </r>
       <r>   -8.1475    1.0000 </r>
       <r>   -8.1238    1.0000 </r>
       <r>   -8.0398    1.0000 </r>
       <r>   -7.9691    1.0000 </r>
       <r>   -7.9491    1.0000 </r>
       <r>   -7.8757    1.0000 </r>
       <r>   -7.8471    1.0000 </r>
       <r>   -7.8444    1.0000 </r>
       <r>   -7.8052    1.0000 </r>
       <r>   -7.8013    1.0000 </r>
       <r>   -7.7950    1.0000 </r>
       <r>   -7.7378    1.0000 </r>
       <r>   -7.7358    1.0000 </r>
       <r>   -7.7125    1.0000 </r>
       <r>   -7.6781    1.0000 </r>
       <r>   -7.6755    1.0000 </r>
       <r>   -7.6631    1.0000 </r>
       <r>   -7.6374    1.0000 </r>
       <r>   -7.6303    1.0000 </r>
       <r>   -7.4417    1.0000 </r>
       <r>   -7.4372    1.0000 </r>
       <r>   -7.4294    1.0000 </r>
       <r>   -7.3840    1.0000 </r>
       <r>   -7.3589    1.0000 </r>
       <r>   -7.2713    1.0000 </r>
       <r>   -6.8317    1.0000 </r>
       <r>   -6.7547    1.0000 </r>
       <r>   -6.6232    1.0000 </r>
       <r>   -6.6058    1.0000 </r>
       <r>   -6.5443    1.0000 </r>
       <r>   -6.5398    1.0000 </r>
       <r>   -6.5026    1.0000 </r>
       <r>   -6.4894    1.0000 </r>
       <r>   -6.4568    1.0000 </r>
       <r>   -6.4564    1.0000 </r>
       <r>   -6.4397    1.0000 </r>
       <r>   -6.4393    1.0000 </r>
       <r>   -6.4104    1.0000 </r>
       <r>   -6.4047    1.0000 </r>
       <r>   -6.3565    1.0000 </r>
       <r>   -6.3465    1.0000 </r>
       <r>   -6.3178    1.0000 </r>
       <r>   -6.1121    1.0000 </r>
       <r>   -5.9711    1.0000 </r>
       <r>   -5.9231    1.0000 </r>
       <r>   -5.8875    1.0000 </r>
       <r>   -5.8800    1.0000 </r>
       <r>   -5.8601    1.0000 </r>
       <r>   -5.7817    1.0000 </r>
       <r>   -5.7789    1.0000 </r>
       <r>   -5.5261    1.0000 </r>
       <r>   -5.2220    1.0000 </r>
       <r>   -5.1975    1.0000 </r>
       <r>   -5.1972    1.0000 </r>
       <r>   -5.1400    1.0000 </r>
       <r>   -5.1334    1.0000 </r>
       <r>   -5.1044    1.0000 </r>
       <r>   -4.9989    1.0000 </r>
       <r>   -4.9451    1.0000 </r>
       <r>   -4.9149    1.0000 </r>
       <r>   -4.9080    1.0000 </r>
       <r>   -4.8996    1.0000 </r>
       <r>   -4.7320    1.0000 </r>
       <r>   -1.3158    1.0000 </r>
       <r>   -1.2027    0.0000 </r>
       <r>    0.0590    0.0000 </r>
       <r>    0.2048    0.0000 </r>
       <r>    0.2396    0.0000 </r>
       <r>    0.2583    0.0000 </r>
       <r>    0.2612    0.0000 </r>
       <r>    0.3040    0.0000 </r>
       <r>    0.3053    0.0000 </r>
       <r>    0.3792    0.0000 </r>
       <r>    0.3943    0.0000 </r>
       <r>    0.4326    0.0000 </r>
       <r>    0.4793    0.0000 </r>
       <r>    0.5260    0.0000 </r>
       <r>    0.6102    0.0000 </r>
       <r>    0.7481    0.0000 </r>
       <r>    0.7492    0.0000 </r>
       <r>    0.7778    0.0000 </r>
       <r>    0.8059    0.0000 </r>
       <r>    0.8129    0.0000 </r>
       <r>    0.8265    0.0000 </r>
       <r>    0.8384    0.0000 </r>
       <r>    0.8587    0.0000 </r>
       <r>    0.8705    0.0000 </r>
       <r>    0.9798    0.0000 </r>
       <r>    1.0199    0.0000 </r>
       <r>    1.0600    0.0000 </r>
       <r>    1.1185    0.0000 </r>
       <r>    1.4953    0.0000 </r>
       <r>    1.6732    0.0000 </r>
       <r>    1.6968    0.0000 </r>
       <r>    1.7064    0.0000 </r>
       <r>    1.7234    0.0000 </r>
       <r>    1.7402    0.0000 </r>
       <r>    1.7440    0.0000 </r>
       <r>    1.8043    0.0000 </r>
       <r>    1.8070    0.0000 </r>
       <r>    1.8464    0.0000 </r>
       <r>    1.8469    0.0000 </r>
       <r>    1.8794    0.0000 </r>
       <r>    1.8816    0.0000 </r>
       <r>    1.9054    0.0000 </r>
       <r>    1.9089    0.0000 </r>
       <r>    1.9289    0.0000 </r>
       <r>    1.9842    0.0000 </r>
       <r>    2.0298    0.0000 </r>
       <r>    2.1055    0.0000 </r>
       <r>    2.1122    0.0000 </r>
       <r>    2.1296    0.0000 </r>
       <r>    2.1359    0.0000 </r>
       <r>    2.1402    0.0000 </r>
      </set>
     </set>
    </set>
   </array>
  </eigenvalues>
  <separator name="orbital magnetization" >
   <v name="MAGDIPOLOUT">      0.00000000      0.00000000      0.00000000</v>
  </separator>
  <dos>
   <i name="efermi">     -1.25244374 </i>
   <total>
    <array>
     <dimension dim="1">gridpoints</dimension>
     <dimension dim="2">spin</dimension>
     <field>energy</field>
     <field>total</field>
     <field>integrated</field>
     <set>
      <set comment="spin 1">
       <r>   -23.7752     0.0000     0.0000 </r>
       <r>   -23.6847     0.0000     0.0000 </r>
       <r>   -23.5942     0.0000     0.0000 </r>
       <r>   -23.5037     0.0000     0.0000 </r>
       <r>   -23.4133     0.0000     0.0000 </r>
       <r>   -23.3228     0.0000     0.0000 </r>
       <r>   -23.2323     0.0000     0.0000 </r>
       <r>   -23.1418     0.0000     0.0000 </r>
       <r>   -23.0513     0.0000     0.0000 </r>
       <r>   -22.9608     0.0000     0.0000 </r>
       <r>   -22.8703     0.0000     0.0000 </r>
       <r>   -22.7798     0.0000     0.0000 </r>
       <r>   -22.6893     0.0000     0.0000 </r>
       <r>   -22.5988     0.0000     0.0000 </r>
       <r>   -22.5083    22.0998     2.0000 </r>
       <r>   -22.4178     0.0000     2.0000 </r>
       <r>   -22.3273     0.0000     2.0000 </r>
       <r>   -22.2368     0.0000     2.0000 </r>
       <r>   -22.1463     0.0000     2.0000 </r>
       <r>   -22.0558     0.0000     2.0000 </r>
       <r>   -21.9653    22.0998     4.0000 </r>
       <r>   -21.8748     0.0000     4.0000 </r>
       <r>   -21.7843     1.8895     4.1710 </r>
       <r>   -21.6938    34.2290     9.0977 </r>
       <r>   -21.6033    43.7555    13.9598 </r>
       <r>   -21.5128     0.0000    14.0000 </r>
       <r>   -21.4223     0.0000    14.0000 </r>
       <r>   -21.3318     0.0000    14.0000 </r>
       <r>   -21.2413     6.8603    14.6208 </r>
       <r>   -21.1508     0.0000    16.0000 </r>
       <r>   -21.0603    20.4128    17.8473 </r>
       <r>   -20.9698    32.1653    20.9109 </r>
       <r>   -20.8793    28.8862    24.6142 </r>
       <r>   -20.7888     0.0000    26.0000 </r>
       <r>   -20.6983    38.4285    29.4777 </r>
       <r>   -20.6078    22.7607    32.0598 </r>
       <r>   -20.5173    43.5388    36.0000 </r>
       <r>   -20.4268    12.4314    37.1250 </r>
       <r>   -20.3363     0.0000    38.0000 </r>
       <r>   -20.2458     0.0000    38.0000 </r>
       <r>   -20.1553     0.0000    38.0000 </r>
       <r>   -20.0648     0.0000    38.0000 </r>
       <r>   -19.9743    19.1935    39.7370 </r>
       <r>   -19.8838    22.0998    42.0000 </r>
       <r>   -19.7933    21.0032    43.9008 </r>
       <r>   -19.7028    89.1110    52.0644 </r>
       <r>   -19.6123    66.1914    59.9902 </r>
       <r>   -19.5218     0.0011    60.0001 </r>
       <r>   -19.4313    22.1124    62.0012 </r>
       <r>   -19.3408    65.7757    67.9538 </r>
       <r>   -19.2503    23.1458    70.0947 </r>
       <r>   -19.1598    21.0538    72.0000 </r>
       <r>   -19.0693    22.0998    74.0000 </r>
       <r>   -18.9788    22.0914    75.9992 </r>
       <r>   -18.8883    22.9954    78.0810 </r>
       <r>   -18.7978    65.4039    84.0000 </r>
       <r>   -18.7073    84.5271    91.6496 </r>
       <r>   -18.6168    21.7096    94.0000 </r>
       <r>   -18.5263     0.0000    94.0000 </r>
       <r>   -18.4358    19.8149    95.7932 </r>
       <r>   -18.3453     0.0000    96.0000 </r>
       <r>   -18.2548     0.0000    96.0000 </r>
       <r>   -18.1643     0.0000    96.0000 </r>
       <r>   -18.0738     0.0000    96.0000 </r>
       <r>   -17.9833     0.0000    96.0000 </r>
       <r>   -17.8928     0.0000    96.0000 </r>
       <r>   -17.8023     0.0000    96.0000 </r>
       <r>   -17.7118     0.0000    96.0000 </r>
       <r>   -17.6214     0.0000    96.0000 </r>
       <r>   -17.5309     0.0000    96.0000 </r>
       <r>   -17.4404     0.0000    96.0000 </r>
       <r>   -17.3499     0.0000    96.0000 </r>
       <r>   -17.2594     0.0000    96.0000 </r>
       <r>   -17.1689     0.0000    96.0000 </r>
       <r>   -17.0784     0.0000    96.0000 </r>
       <r>   -16.9879     0.0000    96.0000 </r>
       <r>   -16.8974     0.0000    96.0000 </r>
       <r>   -16.8069     0.0000    96.0000 </r>
       <r>   -16.7164     0.0000    96.0000 </r>
       <r>   -16.6259     0.0000    96.0000 </r>
       <r>   -16.5354     0.0000    96.0000 </r>
       <r>   -16.4449     0.0000    96.0000 </r>
       <r>   -16.3544     0.0000    96.0000 </r>
       <r>   -16.2639     0.0000    96.0000 </r>
       <r>   -16.1734     0.0000    96.0000 </r>
       <r>   -16.0829     0.0000    96.0000 </r>
       <r>   -15.9924     0.0000    96.0000 </r>
       <r>   -15.9019     0.0000    96.0000 </r>
       <r>   -15.8114     0.0000    96.0000 </r>
       <r>   -15.7209     0.0000    96.0000 </r>
       <r>   -15.6304     0.0000    96.0000 </r>
       <r>   -15.5399     0.0000    96.0000 </r>
       <r>   -15.4494     0.0000    96.0000 </r>
       <r>   -15.3589     0.0000    96.0000 </r>
       <r>   -15.2684     0.0000    96.0000 </r>
       <r>   -15.1779     0.0000    96.0000 </r>
       <r>   -15.0874     0.0000    96.0000 </r>
       <r>   -14.9969     0.0000    96.0000 </r>
       <r>   -14.9064     0.0000    96.0000 </r>
       <r>   -14.8159     0.0000    96.0000 </r>
       <r>   -14.7254     0.0000    96.0000 </r>
       <r>   -14.6349     0.0000    96.0000 </r>
       <r>   -14.5444     0.0000    96.0000 </r>
       <r>   -14.4539     0.0000    96.0000 </r>
       <r>   -14.3634     0.0000    96.0000 </r>
       <r>   -14.2729     0.0000    96.0000 </r>
       <r>   -14.1824     0.0000    96.0000 </r>
       <r>   -14.0919    22.0998    98.0000 </r>
       <r>   -14.0014     0.0000    98.0000 </r>
       <r>   -13.9109     0.0000    98.0000 </r>
       <r>   -13.8204     0.0000    98.0000 </r>
       <r>   -13.7299     0.0000    98.0000 </r>
       <r>   -13.6394     0.0000    98.0000 </r>
       <r>   -13.5489     0.0000    98.0000 </r>
       <r>   -13.4584     0.0000    98.0000 </r>
       <r>   -13.3679     0.0000    98.0000 </r>
       <r>   -13.2774     0.0000    98.0000 </r>
       <r>   -13.1869     5.5544    98.5027 </r>
       <r>   -13.0964    63.8725   105.7804 </r>
       <r>   -13.0059    42.1215   109.8337 </r>
       <r>   -12.9154    66.2552   115.9960 </r>
       <r>   -12.8249     0.0427   116.0039 </r>
       <r>   -12.7344    44.1569   120.0000 </r>
       <r>   -12.6439     0.0000   120.0000 </r>
       <r>   -12.5534    22.0998   122.0000 </r>
       <r>   -12.4629    44.1904   125.9992 </r>
       <r>   -12.3724    17.7411   127.6055 </r>
       <r>   -12.2819    43.8299   131.9665 </r>
       <r>   -12.1914     0.5916   132.0535 </r>
       <r>   -12.1009    21.5082   134.0000 </r>
       <r>   -12.0104     0.0000   134.0000 </r>
       <r>   -11.9199     0.1127   134.0102 </r>
       <r>   -11.8294    44.0869   138.0000 </r>
       <r>   -11.7390    78.8266   145.1337 </r>
       <r>   -11.6485    41.8877   149.7908 </r>
       <r>   -11.5580    22.1488   152.0147 </r>
       <r>   -11.4675    21.9372   154.0000 </r>
       <r>   -11.3770    22.0998   156.0000 </r>
       <r>   -11.2865     0.0000   156.0000 </r>
       <r>   -11.1960    15.6205   157.4136 </r>
       <r>   -11.1055    22.0553   159.9960 </r>
       <r>   -11.0150    44.1655   164.0000 </r>
       <r>   -10.9245    22.6401   166.0489 </r>
       <r>   -10.8340    21.5595   168.0000 </r>
       <r>   -10.7435     0.0000   168.0000 </r>
       <r>   -10.6530    22.0996   170.0000 </r>
       <r>   -10.5625     0.0000   170.0000 </r>
       <r>   -10.4720     2.9135   170.2637 </r>
       <r>   -10.3815    22.1000   174.0000 </r>
       <r>   -10.2910    22.0997   176.0000 </r>
       <r>   -10.2005    40.3076   179.6478 </r>
       <r>   -10.1100     0.0000   180.0000 </r>
       <r>   -10.0195     0.0000   180.0000 </r>
       <r>    -9.9290     0.0000   180.0000 </r>
       <r>    -9.8385    22.0998   182.0000 </r>
       <r>    -9.7480    43.8742   185.9705 </r>
       <r>    -9.6575    44.1357   189.9953 </r>
       <r>    -9.5670    22.0496   191.9955 </r>
       <r>    -9.4765    45.1127   196.0834 </r>
       <r>    -9.3860    21.1416   198.0000 </r>
       <r>    -9.2955    50.2893   202.5511 </r>
       <r>    -9.2050   162.5969   218.7148 </r>
       <r>    -9.1145    56.6579   229.1275 </r>
       <r>    -9.0240    43.5964   235.9979 </r>
       <r>    -8.9335    22.0996   238.0000 </r>
       <r>    -8.8430    11.3483   239.0270 </r>
       <r>    -8.7525    22.0998   242.0000 </r>
       <r>    -8.6620     4.6136   242.4175 </r>
       <r>    -8.5715     0.0000   244.0000 </r>
       <r>    -8.4810    30.4207   246.7530 </r>
       <r>    -8.3905    22.0998   250.0000 </r>
       <r>    -8.3000    22.0991   251.9999 </r>
       <r>    -8.2095    25.8207   254.3367 </r>
       <r>    -8.1190    82.3375   263.5035 </r>
       <r>    -8.0285    20.8765   265.8893 </r>
       <r>    -7.9380    42.9225   269.8844 </r>
       <r>    -7.8475    39.8642   273.6076 </r>
       <r>    -7.7570    66.4011   282.0092 </r>
       <r>    -7.6665   114.0515   292.3307 </r>
       <r>    -7.5760    44.1992   298.0000 </r>
       <r>    -7.4855     0.0000   298.0000 </r>
       <r>    -7.3950    67.5963   304.1174 </r>
       <r>    -7.3045    42.9029   308.0000 </r>
       <r>    -7.2140    22.0998   310.0000 </r>
       <r>    -7.1235     0.0000   310.0000 </r>
       <r>    -7.0330     0.0000   310.0000 </r>
       <r>    -6.9425     0.0000   310.0000 </r>
       <r>    -6.8520     0.0441   310.0040 </r>
       <r>    -6.7615    25.7571   312.3350 </r>
       <r>    -6.6710     0.0000   314.0000 </r>
       <r>    -6.5805    44.1957   317.9996 </r>
       <r>    -6.4900    75.7522   324.8555 </r>
       <r>    -6.3995   126.0986   337.4117 </r>
       <r>    -6.3090    63.9262   343.7852 </r>
       <r>    -6.2185     0.0000   344.0000 </r>
       <r>    -6.1280     0.2693   344.0244 </r>
       <r>    -6.0375    21.8305   346.0000 </r>
       <r>    -5.9471    22.1003   348.0000 </r>
       <r>    -5.8566    81.5580   355.3816 </r>
       <r>    -5.7661    43.1272   359.9029 </r>
       <r>    -5.6756     0.0000   360.0000 </r>
       <r>    -5.5851     0.0000   360.0000 </r>
       <r>    -5.4946    22.0997   362.0000 </r>
       <r>    -5.4041     0.0000   362.0000 </r>
       <r>    -5.3136     0.0000   362.0000 </r>
       <r>    -5.2231     9.7522   362.8826 </r>
       <r>    -5.1326    75.0927   370.7963 </r>
       <r>    -5.0421    22.0991   374.0000 </r>
       <r>    -4.9516    26.0804   376.3602 </r>
       <r>    -4.8611    66.2995   384.0000 </r>
       <r>    -4.7706     0.0000   384.0000 </r>
       <r>    -4.6801    22.0998   386.0000 </r>
       <r>    -4.5896     0.0000   386.0000 </r>
       <r>    -4.4991     0.0000   386.0000 </r>
       <r>    -4.4086     0.0000   386.0000 </r>
       <r>    -4.3181     0.0000   386.0000 </r>
       <r>    -4.2276     0.0000   386.0000 </r>
       <r>    -4.1371     0.0000   386.0000 </r>
       <r>    -4.0466     0.0000   386.0000 </r>
       <r>    -3.9561     0.0000   386.0000 </r>
       <r>    -3.8656     0.0000   386.0000 </r>
       <r>    -3.7751     0.0000   386.0000 </r>
       <r>    -3.6846     0.0000   386.0000 </r>
       <r>    -3.5941     0.0000   386.0000 </r>
       <r>    -3.5036     0.0000   386.0000 </r>
       <r>    -3.4131     0.0000   386.0000 </r>
       <r>    -3.3226     0.0000   386.0000 </r>
       <r>    -3.2321     0.0000   386.0000 </r>
       <r>    -3.1416     0.0000   386.0000 </r>
       <r>    -3.0511     0.0000   386.0000 </r>
       <r>    -2.9606     0.0000   386.0000 </r>
       <r>    -2.8701     0.0000   386.0000 </r>
       <r>    -2.7796     0.0000   386.0000 </r>
       <r>    -2.6891     0.0000   386.0000 </r>
       <r>    -2.5986     0.0000   386.0000 </r>
       <r>    -2.5081     0.0000   386.0000 </r>
       <r>    -2.4176     0.0000   386.0000 </r>
       <r>    -2.3271     0.0000   386.0000 </r>
       <r>    -2.2366     0.0000   386.0000 </r>
       <r>    -2.1461     0.0000   386.0000 </r>
       <r>    -2.0556     0.0000   386.0000 </r>
       <r>    -1.9651     0.0000   386.0000 </r>
       <r>    -1.8746     0.0000   386.0000 </r>
       <r>    -1.7841     0.0000   386.0000 </r>
       <r>    -1.6936     0.0000   386.0000 </r>
       <r>    -1.6031     0.0000   386.0000 </r>
       <r>    -1.5126     0.0000   386.0000 </r>
       <r>    -1.4221     0.0000   386.0000 </r>
       <r>    -1.3316     0.2764   386.0250 </r>
       <r>    -1.2411    21.8234   388.0000 </r>
       <r>    -1.1506    22.0998   390.0000 </r>
       <r>    -1.0601     0.0000   390.0000 </r>
       <r>    -0.9696     0.0000   390.0000 </r>
       <r>    -0.8791     0.0000   390.0000 </r>
       <r>    -0.7886     0.0000   390.0000 </r>
       <r>    -0.6981     0.0000   390.0000 </r>
       <r>    -0.6076     0.0000   390.0000 </r>
       <r>    -0.5171     0.0000   390.0000 </r>
       <r>    -0.4266     0.0000   390.0000 </r>
       <r>    -0.3361     0.0000   390.0000 </r>
       <r>    -0.2456     0.0000   390.0000 </r>
       <r>    -0.1552     0.0000   390.0000 </r>
       <r>    -0.0647     0.0000   390.0000 </r>
       <r>     0.0258     0.0000   390.0000 </r>
       <r>     0.1163    22.0998   392.0000 </r>
       <r>     0.2068    13.5707   393.2281 </r>
       <r>     0.2973    72.9905   400.6055 </r>
       <r>     0.3878    23.6286   406.1384 </r>
       <r>     0.4783    32.0014   410.8961 </r>
       <r>     0.5688    22.0998   414.0000 </r>
       <r>     0.6593    22.0998   416.0000 </r>
       <r>     0.7498    24.9963   418.2621 </r>
       <r>     0.8403   101.3333   429.1706 </r>
       <r>     0.9308    44.0953   434.0000 </r>
       <r>     1.0213    34.9484   437.1628 </r>
       <r>     1.1118    25.9067   440.3445 </r>
       <r>     1.2023     0.0000   442.0000 </r>
       <r>     1.2928     0.0000   442.0000 </r>
       <r>     1.3833     0.0000   442.0000 </r>
       <r>     1.4738     0.0264   442.0024 </r>
       <r>     1.5643    22.0734   444.0000 </r>
       <r>     1.6548     0.1039   444.0094 </r>
       <r>     1.7453   117.8098   454.6710 </r>
       <r>     1.8358    46.9873   460.2523 </r>
       <r>     1.9263   137.5068   472.6965 </r>
       <r>     2.0168    22.8340   476.0664 </r>
       <r>     2.1073    40.1137   479.6967 </r>
       <r>     2.1978    66.2807   488.0000 </r>
       <r>     2.2883     0.0000   488.0000 </r>
       <r>     2.3788     0.0000   488.0000 </r>
       <r>     2.4693     0.0000   488.0000 </r>
       <r>     2.5598     0.0000   488.0000 </r>
       <r>     2.6503     0.0000   488.0000 </r>
       <r>     2.7408     0.0000   488.0000 </r>
       <r>     2.8313     0.0000   488.0000 </r>
       <r>     2.9218     0.0000   488.0000 </r>
       <r>     3.0123     0.0000   488.0000 </r>
       <r>     3.1028     0.0000   488.0000 </r>
       <r>     3.1933     0.0000   488.0000 </r>
       <r>     3.2838     0.0000   488.0000 </r>
       <r>     3.3743     0.0000   488.0000 </r>
      </set>
     </set>
    </array>
   </total>
  </dos>
 </calculation>
 <structure name="finalpos" >
  <crystal>
   <varray name="basis" >
    <v>      17.59966831       0.00000000       0.00000000 </v>
    <v>      -8.79983416      15.24175986       0.00000000 </v>
    <v>       0.00000000       0.00000000      19.92151445 </v>
   </varray>
   <i name="volume">   5343.94461817 </i>
   <varray name="rec_basis" >
    <v>       0.05681925       0.03280461       0.00000000 </v>
    <v>       0.00000000       0.06560922       0.00000000 </v>
    <v>       0.00000000       0.00000000       0.05019699 </v>
   </varray>
  </crystal>
  <varray name="positions" >
   <v>       0.99943010       0.00005992       0.50000000 </v>
   <v>       0.14164706       0.99871895       0.50000000 </v>
   <v>       0.28492260       0.99841663       0.50000000 </v>
   <v>       0.42850047       0.99871895       0.50000000 </v>
   <v>       0.57205839       0.00005992       0.50000000 </v>
   <v>       0.71530655       0.00214292       0.50000000 </v>
   <v>       0.85826494       0.00214292       0.50000000 </v>
   <v>       0.00080792       0.14408264       0.50000000 </v>
   <v>       0.14259355       0.14244783       0.50000000 </v>
   <v>       0.28470221       0.14112972       0.50000000 </v>
   <v>       0.42785608       0.14112972       0.50000000 </v>
   <v>       0.57128286       0.14244783       0.50000000 </v>
   <v>       0.71470329       0.14408264       0.50000000 </v>
   <v>       0.85805263       0.14467669       0.50000000 </v>
   <v>       0.00095476       0.28713011       0.50000000 </v>
   <v>       0.14372552       0.28645370       0.50000000 </v>
   <v>       0.28540977       0.28469374       0.50000000 </v>
   <v>       0.42724431       0.28306005       0.50000000 </v>
   <v>       0.57071254       0.28469374       0.50000000 </v>
   <v>       0.71415674       0.28645370       0.50000000 </v>
   <v>       0.85760392       0.28713011       0.50000000 </v>
   <v>       0.00054479       0.42928482       0.49962381 </v>
   <v>       0.14422690       0.42957551       0.50000000 </v>
   <v>       0.28730213       0.42918005       0.50000000 </v>
   <v>       0.42797654       0.42569726       0.50000000 </v>
   <v>       0.56914930       0.42569726       0.50000000 </v>
   <v>       0.71330650       0.42918005       0.50000000 </v>
   <v>       0.85677719       0.42957551       0.50000000 </v>
   <v>       0.99928255       0.57181462       0.50000000 </v>
   <v>       0.14396064       0.57181462       0.50000000 </v>
   <v>       0.28862787       0.57181625       0.50000000 </v>
   <v>       0.43313209       0.57215564       0.50000000 </v>
   <v>       0.71045212       0.57215564       0.50000000 </v>
   <v>       0.85461695       0.57181625       0.50000000 </v>
   <v>       0.99707234       0.71370518       0.50000000 </v>
   <v>       0.14255519       0.71368182       0.50000000 </v>
   <v>       0.28806142       0.71370518       0.50000000 </v>
   <v>       0.43464191       0.71382540       0.50000000 </v>
   <v>       0.58510826       0.71626937       0.50000000 </v>
   <v>       0.70258968       0.71626937       0.50000000 </v>
   <v>       0.85061206       0.71382540       0.50000000 </v>
   <v>       0.99777175       0.85613493       0.50000000 </v>
   <v>       0.14160898       0.85591288       0.50000000 </v>
   <v>       0.28573247       0.85591288       0.50000000 </v>
   <v>       0.42979175       0.85613493       0.50000000 </v>
   <v>       0.57342541       0.85758690       0.50000000 </v>
   <v>       0.71640633       0.86138410       0.50000000 </v>
   <v>       0.85559006       0.85758690       0.50000000 </v>
   <v>       0.04754270       0.09547788       0.50000000 </v>
   <v>       0.18957833       0.09405657       0.50000000 </v>
   <v>       0.33254182       0.09365506       0.50000000 </v>
   <v>       0.47590681       0.09405657       0.50000000 </v>
   <v>       0.61936376       0.09547788       0.50000000 </v>
   <v>       0.76280004       0.09719274       0.50000000 </v>
   <v>       0.90582126       0.09719274       0.50000000 </v>
   <v>       0.04854983       0.23934281       0.50000000 </v>
   <v>       0.19048138       0.23782962       0.50000000 </v>
   <v>       0.33234878       0.23634667       0.50000000 </v>
   <v>       0.47542646       0.23634667       0.50000000 </v>
   <v>       0.61877681       0.23782962       0.50000000 </v>
   <v>       0.76222155       0.23934281       0.50000000 </v>
   <v>       0.90562797       0.23982737       0.50000000 </v>
   <v>       0.04871288       0.38232824       0.50000000 </v>
   <v>       0.19188940       0.38184213       0.50000000 </v>
   <v>       0.33352206       0.38013969       0.50000000 </v>
   <v>       0.47472270       0.37801683       0.50000000 </v>
   <v>       0.61804620       0.38013969       0.50000000 </v>
   <v>       0.76138130       0.38184213       0.50000000 </v>
   <v>       0.90504393       0.38232824       0.50000000 </v>
   <v>       0.04810654       0.52478452       0.50000000 </v>
   <v>       0.19263929       0.52476864       0.50000000 </v>
   <v>       0.33696521       0.52455433       0.50000000 </v>
   <v>       0.47833704       0.52146721       0.50000000 </v>
   <v>       0.61455874       0.52146721       0.50000000 </v>
   <v>       0.75901769       0.52455433       0.50000000 </v>
   <v>       0.90355792       0.52476864       0.50000000 </v>
   <v>       0.04642473       0.66685228       0.50000000 </v>
   <v>       0.19185612       0.66685228       0.50000000 </v>
   <v>       0.33777931       0.66688794       0.50000000 </v>
   <v>       0.48615700       0.66710760       0.50000000 </v>
   <v>       0.75237918       0.66710760       0.50000000 </v>
   <v>       0.90053720       0.66688794       0.50000000 </v>
   <v>       0.04582562       0.80879365       0.50000000 </v>
   <v>       0.19009580       0.80876303       0.50000000 </v>
   <v>       0.33439660       0.80879365       0.50000000 </v>
   <v>       0.47844872       0.80897069       0.50000000 </v>
   <v>       0.62209487       0.81129474       0.50000000 </v>
   <v>       0.76062845       0.81129474       0.50000000 </v>
   <v>       0.90195054       0.80897069       0.50000000 </v>
   <v>       0.04629157       0.95154386       0.50000000 </v>
   <v>       0.18948291       0.95113037       0.50000000 </v>
   <v>       0.33307603       0.95113037       0.50000000 </v>
   <v>       0.47668087       0.95154386       0.50000000 </v>
   <v>       0.62015751       0.95313740       0.50000000 </v>
   <v>       0.76355772       0.95568687       0.50000000 </v>
   <v>       0.90440847       0.95313740       0.50000000 </v>
   <v>       0.56830873       0.56518888       0.50000000 </v>
  </varray>
 </structure>
</modeling>
